    2    2    1    2
  0.1333597E+02  0.2987800E-09  0.2987800E-09  0.2987800E-09  0.5000000E-15
  1.000000000000000E-004
  CAR 
 V                                       
   22    4   15
 
  0.0000000E+00  0.0000000E+00  0.0000000E+00  0.3703704E-01
   1      -31.708596    -31.708596
   2      -31.708596    -31.708596
   3      -31.708596    -31.708596
   4      -31.061475    -31.061475
   5      -31.061475    -31.061475
   6      -31.061475    -31.061475
   7       -0.811953     -0.811953
   8        2.607665      2.607665
   9        2.607665      2.607665
  10        6.002735      6.002735
  11        6.002735      6.002735
  12        6.002735      6.002735
  13        8.013630      8.013630
  14        8.013630      8.013630
  15        9.361252      9.361252
 
  0.3333333E+00  0.0000000E+00  0.0000000E+00  0.2222222E+00
   1      -31.682851    -31.682851
   2      -31.539793    -31.539793
   3      -31.539793    -31.539793
   4      -31.363786    -31.363786
   5      -31.215960    -31.215960
   6      -31.215960    -31.215960
   7        1.216017      1.216017
   8        3.394994      3.394994
   9        3.771669      3.771669
  10        6.050595      6.050595
  11        6.050595      6.050595
  12        6.457025      6.457025
  13        6.771661      6.771661
  14        7.383619      7.383619
  15        7.383620      7.383620
 
  0.3333333E+00  0.3333333E+00  0.0000000E+00  0.4444444E+00
   1      -31.935665    -31.935665
   2      -31.782518    -31.782518
   3      -31.447103    -31.447103
   4      -31.284953    -31.284953
   5      -31.234384    -31.234384
   6      -31.067231    -31.067231
   7        2.201004      2.201004
   8        3.123182      3.123182
   9        4.809697      4.809697
  10        5.123957      5.123957
  11        5.357025      5.357025
  12        5.853431      5.853431
  13        7.260017      7.260017
  14        7.862532      7.862532
  15        8.230907      8.230907
 
  0.3333333E+00  0.3333333E+00  0.3333333E+00  0.2962963E+00
   1      -31.808727    -31.808727
   2      -31.713049    -31.713049
   3      -31.713049    -31.713049
   4      -31.278227    -31.278227
   5      -31.278227    -31.278227
   6      -31.179331    -31.179331
   7        3.831291      3.831291
   8        3.998572      3.998572
   9        4.466211      4.466211
  10        4.466211      4.466211
  11        4.724276      4.724276
  12        4.724276      4.724276
  13        8.230309      8.230309
  14        8.253908      8.253831
  15        8.292606      8.292606
