Automatically generated mesh
     352
Reciprocal lattice
    0.00000000000000    0.00000000000000    0.00000000000000             1
    0.10000000000000    0.00000000000000    0.00000000000000             2
    0.20000000000000    0.00000000000000    0.00000000000000             2
    0.30000000000000    0.00000000000000    0.00000000000000             2
    0.40000000000000    0.00000000000000    0.00000000000000             2
    0.50000000000000    0.00000000000000    0.00000000000000             1
    0.00000000000000    0.10000000000000    0.00000000000000             2
    0.10000000000000    0.10000000000000    0.00000000000000             2
    0.20000000000000    0.10000000000000    0.00000000000000             2
    0.30000000000000    0.10000000000000    0.00000000000000             2
    0.40000000000000    0.10000000000000    0.00000000000000             2
    0.50000000000000    0.10000000000000    0.00000000000000             2
   -0.40000000000000    0.10000000000000    0.00000000000000             2
   -0.30000000000000    0.10000000000000    0.00000000000000             2
   -0.20000000000000    0.10000000000000    0.00000000000000             2
   -0.10000000000000    0.10000000000000    0.00000000000000             2
    0.00000000000000    0.20000000000000    0.00000000000000             2
    0.10000000000000    0.20000000000000    0.00000000000000             2
    0.20000000000000    0.20000000000000    0.00000000000000             2
    0.30000000000000    0.20000000000000    0.00000000000000             2
    0.40000000000000    0.20000000000000    0.00000000000000             2
    0.50000000000000    0.20000000000000    0.00000000000000             2
   -0.40000000000000    0.20000000000000    0.00000000000000             2
   -0.30000000000000    0.20000000000000    0.00000000000000             2
   -0.20000000000000    0.20000000000000    0.00000000000000             2
   -0.10000000000000    0.20000000000000    0.00000000000000             2
    0.00000000000000    0.30000000000000    0.00000000000000             2
    0.10000000000000    0.30000000000000    0.00000000000000             2
    0.20000000000000    0.30000000000000    0.00000000000000             2
    0.30000000000000    0.30000000000000    0.00000000000000             2
    0.40000000000000    0.30000000000000    0.00000000000000             2
    0.50000000000000    0.30000000000000    0.00000000000000             2
   -0.40000000000000    0.30000000000000    0.00000000000000             2
   -0.30000000000000    0.30000000000000    0.00000000000000             2
   -0.20000000000000    0.30000000000000    0.00000000000000             2
   -0.10000000000000    0.30000000000000    0.00000000000000             2
    0.00000000000000    0.40000000000000    0.00000000000000             2
    0.10000000000000    0.40000000000000    0.00000000000000             2
    0.20000000000000    0.40000000000000    0.00000000000000             2
    0.30000000000000    0.40000000000000    0.00000000000000             2
    0.40000000000000    0.40000000000000    0.00000000000000             2
    0.50000000000000    0.40000000000000    0.00000000000000             2
   -0.40000000000000    0.40000000000000    0.00000000000000             2
   -0.30000000000000    0.40000000000000    0.00000000000000             2
   -0.20000000000000    0.40000000000000    0.00000000000000             2
   -0.10000000000000    0.40000000000000    0.00000000000000             2
    0.00000000000000    0.50000000000000    0.00000000000000             1
    0.10000000000000    0.50000000000000    0.00000000000000             2
    0.20000000000000    0.50000000000000    0.00000000000000             2
    0.30000000000000    0.50000000000000    0.00000000000000             2
    0.40000000000000    0.50000000000000    0.00000000000000             2
    0.50000000000000    0.50000000000000    0.00000000000000             1
    0.00000000000000    0.00000000000000    0.14285714285714             2
    0.10000000000000    0.00000000000000    0.14285714285714             2
    0.20000000000000    0.00000000000000    0.14285714285714             2
    0.30000000000000    0.00000000000000    0.14285714285714             2
    0.40000000000000    0.00000000000000    0.14285714285714             2
    0.50000000000000    0.00000000000000    0.14285714285714             2
   -0.40000000000000    0.00000000000000    0.14285714285714             2
   -0.30000000000000    0.00000000000000    0.14285714285714             2
   -0.20000000000000    0.00000000000000    0.14285714285714             2
   -0.10000000000000    0.00000000000000    0.14285714285714             2
    0.00000000000000    0.10000000000000    0.14285714285714             2
    0.10000000000000    0.10000000000000    0.14285714285714             2
    0.20000000000000    0.10000000000000    0.14285714285714             2
    0.30000000000000    0.10000000000000    0.14285714285714             2
    0.40000000000000    0.10000000000000    0.14285714285714             2
    0.50000000000000    0.10000000000000    0.14285714285714             2
   -0.40000000000000    0.10000000000000    0.14285714285714             2
   -0.30000000000000    0.10000000000000    0.14285714285714             2
   -0.20000000000000    0.10000000000000    0.14285714285714             2
   -0.10000000000000    0.10000000000000    0.14285714285714             2
    0.00000000000000    0.20000000000000    0.14285714285714             2
    0.10000000000000    0.20000000000000    0.14285714285714             2
    0.20000000000000    0.20000000000000    0.14285714285714             2
    0.30000000000000    0.20000000000000    0.14285714285714             2
    0.40000000000000    0.20000000000000    0.14285714285714             2
    0.50000000000000    0.20000000000000    0.14285714285714             2
   -0.40000000000000    0.20000000000000    0.14285714285714             2
   -0.30000000000000    0.20000000000000    0.14285714285714             2
   -0.20000000000000    0.20000000000000    0.14285714285714             2
   -0.10000000000000    0.20000000000000    0.14285714285714             2
    0.00000000000000    0.30000000000000    0.14285714285714             2
    0.10000000000000    0.30000000000000    0.14285714285714             2
    0.20000000000000    0.30000000000000    0.14285714285714             2
    0.30000000000000    0.30000000000000    0.14285714285714             2
    0.40000000000000    0.30000000000000    0.14285714285714             2
    0.50000000000000    0.30000000000000    0.14285714285714             2
   -0.40000000000000    0.30000000000000    0.14285714285714             2
   -0.30000000000000    0.30000000000000    0.14285714285714             2
   -0.20000000000000    0.30000000000000    0.14285714285714             2
   -0.10000000000000    0.30000000000000    0.14285714285714             2
    0.00000000000000    0.40000000000000    0.14285714285714             2
    0.10000000000000    0.40000000000000    0.14285714285714             2
    0.20000000000000    0.40000000000000    0.14285714285714             2
    0.30000000000000    0.40000000000000    0.14285714285714             2
    0.40000000000000    0.40000000000000    0.14285714285714             2
    0.50000000000000    0.40000000000000    0.14285714285714             2
   -0.40000000000000    0.40000000000000    0.14285714285714             2
   -0.30000000000000    0.40000000000000    0.14285714285714             2
   -0.20000000000000    0.40000000000000    0.14285714285714             2
   -0.10000000000000    0.40000000000000    0.14285714285714             2
    0.00000000000000    0.50000000000000    0.14285714285714             2
    0.10000000000000    0.50000000000000    0.14285714285714             2
    0.20000000000000    0.50000000000000    0.14285714285714             2
    0.30000000000000    0.50000000000000    0.14285714285714             2
    0.40000000000000    0.50000000000000    0.14285714285714             2
    0.50000000000000    0.50000000000000    0.14285714285714             2
   -0.40000000000000    0.50000000000000    0.14285714285714             2
   -0.30000000000000    0.50000000000000    0.14285714285714             2
   -0.20000000000000    0.50000000000000    0.14285714285714             2
   -0.10000000000000    0.50000000000000    0.14285714285714             2
    0.00000000000000   -0.40000000000000    0.14285714285714             2
    0.10000000000000   -0.40000000000000    0.14285714285714             2
    0.20000000000000   -0.40000000000000    0.14285714285714             2
    0.30000000000000   -0.40000000000000    0.14285714285714             2
    0.40000000000000   -0.40000000000000    0.14285714285714             2
    0.50000000000000   -0.40000000000000    0.14285714285714             2
   -0.40000000000000   -0.40000000000000    0.14285714285714             2
   -0.30000000000000   -0.40000000000000    0.14285714285714             2
   -0.20000000000000   -0.40000000000000    0.14285714285714             2
   -0.10000000000000   -0.40000000000000    0.14285714285714             2
    0.00000000000000   -0.30000000000000    0.14285714285714             2
    0.10000000000000   -0.30000000000000    0.14285714285714             2
    0.20000000000000   -0.30000000000000    0.14285714285714             2
    0.30000000000000   -0.30000000000000    0.14285714285714             2
    0.40000000000000   -0.30000000000000    0.14285714285714             2
    0.50000000000000   -0.30000000000000    0.14285714285714             2
   -0.40000000000000   -0.30000000000000    0.14285714285714             2
   -0.30000000000000   -0.30000000000000    0.14285714285714             2
   -0.20000000000000   -0.30000000000000    0.14285714285714             2
   -0.10000000000000   -0.30000000000000    0.14285714285714             2
    0.00000000000000   -0.20000000000000    0.14285714285714             2
    0.10000000000000   -0.20000000000000    0.14285714285714             2
    0.20000000000000   -0.20000000000000    0.14285714285714             2
    0.30000000000000   -0.20000000000000    0.14285714285714             2
    0.40000000000000   -0.20000000000000    0.14285714285714             2
    0.50000000000000   -0.20000000000000    0.14285714285714             2
   -0.40000000000000   -0.20000000000000    0.14285714285714             2
   -0.30000000000000   -0.20000000000000    0.14285714285714             2
   -0.20000000000000   -0.20000000000000    0.14285714285714             2
   -0.10000000000000   -0.20000000000000    0.14285714285714             2
    0.00000000000000   -0.10000000000000    0.14285714285714             2
    0.10000000000000   -0.10000000000000    0.14285714285714             2
    0.20000000000000   -0.10000000000000    0.14285714285714             2
    0.30000000000000   -0.10000000000000    0.14285714285714             2
    0.40000000000000   -0.10000000000000    0.14285714285714             2
    0.50000000000000   -0.10000000000000    0.14285714285714             2
   -0.40000000000000   -0.10000000000000    0.14285714285714             2
   -0.30000000000000   -0.10000000000000    0.14285714285714             2
   -0.20000000000000   -0.10000000000000    0.14285714285714             2
   -0.10000000000000   -0.10000000000000    0.14285714285714             2
    0.00000000000000    0.00000000000000    0.28571428571429             2
    0.10000000000000    0.00000000000000    0.28571428571429             2
    0.20000000000000    0.00000000000000    0.28571428571429             2
    0.30000000000000    0.00000000000000    0.28571428571429             2
    0.40000000000000    0.00000000000000    0.28571428571429             2
    0.50000000000000    0.00000000000000    0.28571428571429             2
   -0.40000000000000    0.00000000000000    0.28571428571429             2
   -0.30000000000000    0.00000000000000    0.28571428571429             2
   -0.20000000000000    0.00000000000000    0.28571428571429             2
   -0.10000000000000    0.00000000000000    0.28571428571429             2
    0.00000000000000    0.10000000000000    0.28571428571429             2
    0.10000000000000    0.10000000000000    0.28571428571429             2
    0.20000000000000    0.10000000000000    0.28571428571429             2
    0.30000000000000    0.10000000000000    0.28571428571429             2
    0.40000000000000    0.10000000000000    0.28571428571429             2
    0.50000000000000    0.10000000000000    0.28571428571429             2
   -0.40000000000000    0.10000000000000    0.28571428571429             2
   -0.30000000000000    0.10000000000000    0.28571428571429             2
   -0.20000000000000    0.10000000000000    0.28571428571429             2
   -0.10000000000000    0.10000000000000    0.28571428571429             2
    0.00000000000000    0.20000000000000    0.28571428571429             2
    0.10000000000000    0.20000000000000    0.28571428571429             2
    0.20000000000000    0.20000000000000    0.28571428571429             2
    0.30000000000000    0.20000000000000    0.28571428571429             2
    0.40000000000000    0.20000000000000    0.28571428571429             2
    0.50000000000000    0.20000000000000    0.28571428571429             2
   -0.40000000000000    0.20000000000000    0.28571428571429             2
   -0.30000000000000    0.20000000000000    0.28571428571429             2
   -0.20000000000000    0.20000000000000    0.28571428571429             2
   -0.10000000000000    0.20000000000000    0.28571428571429             2
    0.00000000000000    0.30000000000000    0.28571428571429             2
    0.10000000000000    0.30000000000000    0.28571428571429             2
    0.20000000000000    0.30000000000000    0.28571428571429             2
    0.30000000000000    0.30000000000000    0.28571428571429             2
    0.40000000000000    0.30000000000000    0.28571428571429             2
    0.50000000000000    0.30000000000000    0.28571428571429             2
   -0.40000000000000    0.30000000000000    0.28571428571429             2
   -0.30000000000000    0.30000000000000    0.28571428571429             2
   -0.20000000000000    0.30000000000000    0.28571428571429             2
   -0.10000000000000    0.30000000000000    0.28571428571429             2
    0.00000000000000    0.40000000000000    0.28571428571429             2
    0.10000000000000    0.40000000000000    0.28571428571429             2
    0.20000000000000    0.40000000000000    0.28571428571429             2
    0.30000000000000    0.40000000000000    0.28571428571429             2
    0.40000000000000    0.40000000000000    0.28571428571429             2
    0.50000000000000    0.40000000000000    0.28571428571429             2
   -0.40000000000000    0.40000000000000    0.28571428571429             2
   -0.30000000000000    0.40000000000000    0.28571428571429             2
   -0.20000000000000    0.40000000000000    0.28571428571429             2
   -0.10000000000000    0.40000000000000    0.28571428571429             2
    0.00000000000000    0.50000000000000    0.28571428571429             2
    0.10000000000000    0.50000000000000    0.28571428571429             2
    0.20000000000000    0.50000000000000    0.28571428571429             2
    0.30000000000000    0.50000000000000    0.28571428571429             2
    0.40000000000000    0.50000000000000    0.28571428571429             2
    0.50000000000000    0.50000000000000    0.28571428571429             2
   -0.40000000000000    0.50000000000000    0.28571428571429             2
   -0.30000000000000    0.50000000000000    0.28571428571429             2
   -0.20000000000000    0.50000000000000    0.28571428571429             2
   -0.10000000000000    0.50000000000000    0.28571428571429             2
    0.00000000000000   -0.40000000000000    0.28571428571429             2
    0.10000000000000   -0.40000000000000    0.28571428571429             2
    0.20000000000000   -0.40000000000000    0.28571428571429             2
    0.30000000000000   -0.40000000000000    0.28571428571429             2
    0.40000000000000   -0.40000000000000    0.28571428571429             2
    0.50000000000000   -0.40000000000000    0.28571428571429             2
   -0.40000000000000   -0.40000000000000    0.28571428571429             2
   -0.30000000000000   -0.40000000000000    0.28571428571429             2
   -0.20000000000000   -0.40000000000000    0.28571428571429             2
   -0.10000000000000   -0.40000000000000    0.28571428571429             2
    0.00000000000000   -0.30000000000000    0.28571428571429             2
    0.10000000000000   -0.30000000000000    0.28571428571429             2
    0.20000000000000   -0.30000000000000    0.28571428571429             2
    0.30000000000000   -0.30000000000000    0.28571428571429             2
    0.40000000000000   -0.30000000000000    0.28571428571429             2
    0.50000000000000   -0.30000000000000    0.28571428571429             2
   -0.40000000000000   -0.30000000000000    0.28571428571429             2
   -0.30000000000000   -0.30000000000000    0.28571428571429             2
   -0.20000000000000   -0.30000000000000    0.28571428571429             2
   -0.10000000000000   -0.30000000000000    0.28571428571429             2
    0.00000000000000   -0.20000000000000    0.28571428571429             2
    0.10000000000000   -0.20000000000000    0.28571428571429             2
    0.20000000000000   -0.20000000000000    0.28571428571429             2
    0.30000000000000   -0.20000000000000    0.28571428571429             2
    0.40000000000000   -0.20000000000000    0.28571428571429             2
    0.50000000000000   -0.20000000000000    0.28571428571429             2
   -0.40000000000000   -0.20000000000000    0.28571428571429             2
   -0.30000000000000   -0.20000000000000    0.28571428571429             2
   -0.20000000000000   -0.20000000000000    0.28571428571429             2
   -0.10000000000000   -0.20000000000000    0.28571428571429             2
    0.00000000000000   -0.10000000000000    0.28571428571429             2
    0.10000000000000   -0.10000000000000    0.28571428571429             2
    0.20000000000000   -0.10000000000000    0.28571428571429             2
    0.30000000000000   -0.10000000000000    0.28571428571429             2
    0.40000000000000   -0.10000000000000    0.28571428571429             2
    0.50000000000000   -0.10000000000000    0.28571428571429             2
   -0.40000000000000   -0.10000000000000    0.28571428571429             2
   -0.30000000000000   -0.10000000000000    0.28571428571429             2
   -0.20000000000000   -0.10000000000000    0.28571428571429             2
   -0.10000000000000   -0.10000000000000    0.28571428571429             2
    0.00000000000000    0.00000000000000    0.42857142857143             2
    0.10000000000000    0.00000000000000    0.42857142857143             2
    0.20000000000000    0.00000000000000    0.42857142857143             2
    0.30000000000000    0.00000000000000    0.42857142857143             2
    0.40000000000000    0.00000000000000    0.42857142857143             2
    0.50000000000000    0.00000000000000    0.42857142857143             2
   -0.40000000000000    0.00000000000000    0.42857142857143             2
   -0.30000000000000    0.00000000000000    0.42857142857143             2
   -0.20000000000000    0.00000000000000    0.42857142857143             2
   -0.10000000000000    0.00000000000000    0.42857142857143             2
    0.00000000000000    0.10000000000000    0.42857142857143             2
    0.10000000000000    0.10000000000000    0.42857142857143             2
    0.20000000000000    0.10000000000000    0.42857142857143             2
    0.30000000000000    0.10000000000000    0.42857142857143             2
    0.40000000000000    0.10000000000000    0.42857142857143             2
    0.50000000000000    0.10000000000000    0.42857142857143             2
   -0.40000000000000    0.10000000000000    0.42857142857143             2
   -0.30000000000000    0.10000000000000    0.42857142857143             2
   -0.20000000000000    0.10000000000000    0.42857142857143             2
   -0.10000000000000    0.10000000000000    0.42857142857143             2
    0.00000000000000    0.20000000000000    0.42857142857143             2
    0.10000000000000    0.20000000000000    0.42857142857143             2
    0.20000000000000    0.20000000000000    0.42857142857143             2
    0.30000000000000    0.20000000000000    0.42857142857143             2
    0.40000000000000    0.20000000000000    0.42857142857143             2
    0.50000000000000    0.20000000000000    0.42857142857143             2
   -0.40000000000000    0.20000000000000    0.42857142857143             2
   -0.30000000000000    0.20000000000000    0.42857142857143             2
   -0.20000000000000    0.20000000000000    0.42857142857143             2
   -0.10000000000000    0.20000000000000    0.42857142857143             2
    0.00000000000000    0.30000000000000    0.42857142857143             2
    0.10000000000000    0.30000000000000    0.42857142857143             2
    0.20000000000000    0.30000000000000    0.42857142857143             2
    0.30000000000000    0.30000000000000    0.42857142857143             2
    0.40000000000000    0.30000000000000    0.42857142857143             2
    0.50000000000000    0.30000000000000    0.42857142857143             2
   -0.40000000000000    0.30000000000000    0.42857142857143             2
   -0.30000000000000    0.30000000000000    0.42857142857143             2
   -0.20000000000000    0.30000000000000    0.42857142857143             2
   -0.10000000000000    0.30000000000000    0.42857142857143             2
    0.00000000000000    0.40000000000000    0.42857142857143             2
    0.10000000000000    0.40000000000000    0.42857142857143             2
    0.20000000000000    0.40000000000000    0.42857142857143             2
    0.30000000000000    0.40000000000000    0.42857142857143             2
    0.40000000000000    0.40000000000000    0.42857142857143             2
    0.50000000000000    0.40000000000000    0.42857142857143             2
   -0.40000000000000    0.40000000000000    0.42857142857143             2
   -0.30000000000000    0.40000000000000    0.42857142857143             2
   -0.20000000000000    0.40000000000000    0.42857142857143             2
   -0.10000000000000    0.40000000000000    0.42857142857143             2
    0.00000000000000    0.50000000000000    0.42857142857143             2
    0.10000000000000    0.50000000000000    0.42857142857143             2
    0.20000000000000    0.50000000000000    0.42857142857143             2
    0.30000000000000    0.50000000000000    0.42857142857143             2
    0.40000000000000    0.50000000000000    0.42857142857143             2
    0.50000000000000    0.50000000000000    0.42857142857143             2
   -0.40000000000000    0.50000000000000    0.42857142857143             2
   -0.30000000000000    0.50000000000000    0.42857142857143             2
   -0.20000000000000    0.50000000000000    0.42857142857143             2
   -0.10000000000000    0.50000000000000    0.42857142857143             2
    0.00000000000000   -0.40000000000000    0.42857142857143             2
    0.10000000000000   -0.40000000000000    0.42857142857143             2
    0.20000000000000   -0.40000000000000    0.42857142857143             2
    0.30000000000000   -0.40000000000000    0.42857142857143             2
    0.40000000000000   -0.40000000000000    0.42857142857143             2
    0.50000000000000   -0.40000000000000    0.42857142857143             2
   -0.40000000000000   -0.40000000000000    0.42857142857143             2
   -0.30000000000000   -0.40000000000000    0.42857142857143             2
   -0.20000000000000   -0.40000000000000    0.42857142857143             2
   -0.10000000000000   -0.40000000000000    0.42857142857143             2
    0.00000000000000   -0.30000000000000    0.42857142857143             2
    0.10000000000000   -0.30000000000000    0.42857142857143             2
    0.20000000000000   -0.30000000000000    0.42857142857143             2
    0.30000000000000   -0.30000000000000    0.42857142857143             2
    0.40000000000000   -0.30000000000000    0.42857142857143             2
    0.50000000000000   -0.30000000000000    0.42857142857143             2
   -0.40000000000000   -0.30000000000000    0.42857142857143             2
   -0.30000000000000   -0.30000000000000    0.42857142857143             2
   -0.20000000000000   -0.30000000000000    0.42857142857143             2
   -0.10000000000000   -0.30000000000000    0.42857142857143             2
    0.00000000000000   -0.20000000000000    0.42857142857143             2
    0.10000000000000   -0.20000000000000    0.42857142857143             2
    0.20000000000000   -0.20000000000000    0.42857142857143             2
    0.30000000000000   -0.20000000000000    0.42857142857143             2
    0.40000000000000   -0.20000000000000    0.42857142857143             2
    0.50000000000000   -0.20000000000000    0.42857142857143             2
   -0.40000000000000   -0.20000000000000    0.42857142857143             2
   -0.30000000000000   -0.20000000000000    0.42857142857143             2
   -0.20000000000000   -0.20000000000000    0.42857142857143             2
   -0.10000000000000   -0.20000000000000    0.42857142857143             2
    0.00000000000000   -0.10000000000000    0.42857142857143             2
    0.10000000000000   -0.10000000000000    0.42857142857143             2
    0.20000000000000   -0.10000000000000    0.42857142857143             2
    0.30000000000000   -0.10000000000000    0.42857142857143             2
    0.40000000000000   -0.10000000000000    0.42857142857143             2
    0.50000000000000   -0.10000000000000    0.42857142857143             2
   -0.40000000000000   -0.10000000000000    0.42857142857143             2
   -0.30000000000000   -0.10000000000000    0.42857142857143             2
   -0.20000000000000   -0.10000000000000    0.42857142857143             2
   -0.10000000000000   -0.10000000000000    0.42857142857143             2
Tetrahedra
      2100    0.00023809523810
         2         1         2         8        53
         2         1         7         8        53
         2         7         8        53        63
         2         2         8        53        54
         2         8        53        54        64
         2         8        53        63        64
         2         2         3         9        54
         2         2         8         9        54
         2         8         9        54        64
         2         3         9        54        55
         2         9        54        55        65
         2         9        54        64        65
         2         3         4        10        55
         2         3         9        10        55
         2         9        10        55        65
         2         4        10        55        56
         2        10        55        56        66
         2        10        55        65        66
         2         4         5        11        56
         2         4        10        11        56
         2        10        11        56        66
         2         5        11        56        57
         2        11        56        57        67
         2        11        56        66        67
         2         5         6        12        57
         2         5        11        12        57
         2        11        12        57        67
         2         6        12        57        58
         2        12        57        58        68
         2        12        57        67        68
         2         5         6        13        58
         2         6        12        13        58
         2        12        13        58        68
         2         5        13        58        59
         2        13        58        59        69
         2        13        58        68        69
         2         4         5        14        59
         2         5        13        14        59
         2        13        14        59        69
         2         4        14        59        60
         2        14        59        60        70
         2        14        59        69        70
         2         3         4        15        60
         2         4        14        15        60
         2        14        15        60        70
         2         3        15        60        61
         2        15        60        61        71
         2        15        60        70        71
         2         2         3        16        61
         2         3        15        16        61
         2        15        16        61        71
         2         2        16        61        62
         2        16        61        62        72
         2        16        61        71        72
         2         1         2         7        62
         2         2         7        16        62
         2         7        16        62        72
         2         1         7        53        62
         2         7        53        62        63
         2         7        62        63        72
         2         7         8        18        63
         2         7        17        18        63
         2        17        18        63        73
         2         8        18        63        64
         2        18        63        64        74
         2        18        63        73        74
         2         8         9        19        64
         2         8        18        19        64