   2   2   1   0
  0.9063964E+01  0.2948635E-09  0.2948635E-09  0.2948635E-09  0.5000000E-15
  1.000000000000000E-004
  CAR 
 NiO                                     
     10.00000000     -3.00000000  301      7.93048014      1.00000000
     -3.000  0.0000E+00  0.2000E+01
     -2.957  0.0000E+00  0.2000E+01
     -2.913  0.0000E+00  0.2000E+01
     -2.870  0.0000E+00  0.2000E+01
     -2.827  0.0000E+00  0.2000E+01
     -2.783  0.0000E+00  0.2000E+01
     -2.740  0.0000E+00  0.2000E+01
     -2.697  0.0000E+00  0.2000E+01
     -2.653  0.0000E+00  0.2000E+01
     -2.610  0.0000E+00  0.2000E+01
     -2.567  0.0000E+00  0.2000E+01
     -2.523  0.0000E+00  0.2000E+01
     -2.480  0.0000E+00  0.2000E+01
     -2.437  0.0000E+00  0.2000E+01
     -2.393  0.0000E+00  0.2000E+01
     -2.350  0.0000E+00  0.2000E+01
     -2.307  0.0000E+00  0.2000E+01
     -2.263  0.0000E+00  0.2000E+01
     -2.220  0.0000E+00  0.2000E+01
     -2.177  0.0000E+00  0.2000E+01
     -2.133  0.0000E+00  0.2000E+01
     -2.090  0.0000E+00  0.2000E+01
     -2.047  0.0000E+00  0.2000E+01
     -2.003  0.0000E+00  0.2000E+01
     -1.960  0.0000E+00  0.2000E+01
     -1.917  0.0000E+00  0.2000E+01
     -1.873  0.0000E+00  0.2000E+01
     -1.830  0.0000E+00  0.2000E+01
     -1.787  0.0000E+00  0.2000E+01
     -1.743  0.0000E+00  0.2000E+01
     -1.700  0.0000E+00  0.2000E+01
     -1.657  0.0000E+00  0.2000E+01
     -1.613  0.0000E+00  0.2000E+01
     -1.570  0.0000E+00  0.2000E+01
     -1.527  0.0000E+00  0.2000E+01
     -1.483  0.0000E+00  0.2000E+01
     -1.440  0.0000E+00  0.2000E+01
     -1.397  0.0000E+00  0.2000E+01
     -1.353  0.0000E+00  0.2000E+01
     -1.310  0.0000E+00  0.2000E+01
     -1.267  0.0000E+00  0.2000E+01
     -1.223  0.0000E+00  0.2000E+01
     -1.180  0.0000E+00  0.2000E+01
     -1.137  0.0000E+00  0.2000E+01
     -1.093  0.0000E+00  0.2000E+01
     -1.050  0.0000E+00  0.2000E+01
     -1.007  0.0000E+00  0.2000E+01
     -0.963  0.0000E+00  0.2000E+01
     -0.920  0.0000E+00  0.2000E+01
     -0.877  0.0000E+00  0.2000E+01
     -0.833  0.0000E+00  0.2000E+01
     -0.790  0.0000E+00  0.2000E+01
     -0.747  0.0000E+00  0.2000E+01
     -0.703  0.0000E+00  0.2000E+01
     -0.660  0.0000E+00  0.2000E+01
     -0.617  0.0000E+00  0.2000E+01
     -0.573  0.0000E+00  0.2000E+01
     -0.530  0.0000E+00  0.2000E+01
     -0.487  0.0000E+00  0.2000E+01
     -0.443  0.0000E+00  0.2000E+01
     -0.400  0.0000E+00  0.2000E+01
     -0.357  0.0000E+00  0.2000E+01
     -0.313  0.0000E+00  0.2000E+01
     -0.270  0.1429E-04  0.2000E+01
     -0.227  0.3568E-02  0.2000E+01
     -0.183  0.1338E-01  0.2000E+01
     -0.140  0.2946E-01  0.2001E+01
     -0.097  0.5180E-01  0.2003E+01
     -0.053  0.8040E-01  0.2006E+01
     -0.010  0.1153E+00  0.2010E+01
      0.033  0.1564E+00  0.2016E+01
      0.077  0.2038E+00  0.2024E+01
      0.120  0.2574E+00  0.2034E+01
      0.163  0.3173E+00  0.2046E+01
      0.207  0.3835E+00  0.2061E+01
      0.250  0.4559E+00  0.2079E+01
      0.293  0.5053E+00  0.2100E+01
      0.337  0.5607E+00  0.2123E+01
      0.380  0.6319E+00  0.2149E+01
      0.423  0.7188E+00  0.2178E+01
      0.467  0.8398E+00  0.2212E+01
      0.510  0.9877E+00  0.2252E+01
      0.553  0.1121E+01  0.2297E+01
      0.597  0.1240E+01  0.2348E+01
      0.640  0.1344E+01  0.2405E+01
      0.683  0.1434E+01  0.2465E+01
      0.727  0.1510E+01  0.2529E+01
      0.770  0.1571E+01  0.2595E+01
      0.813  0.1620E+01  0.2665E+01
      0.857  0.1654E+01  0.2736E+01
      0.900  0.2002E+01  0.2812E+01
      0.943  0.3254E+01  0.2922E+01
      0.987  0.4601E+01  0.3125E+01
      1.030  0.3346E+01  0.3283E+01
      1.073  0.2741E+01  0.3416E+01
      1.117  0.2028E+01  0.3519E+01
      1.160  0.1417E+01  0.3593E+01
      1.203  0.9365E+00  0.3644E+01
      1.247  0.6209E+00  0.3677E+01
      1.290  0.4223E+00  0.3699E+01
      1.333  0.3588E+00  0.3716E+01
      1.377  0.3255E+00  0.3731E+01
      1.420  0.2961E+00  0.3744E+01
      1.463  0.2706E+00  0.3756E+01
      1.507  0.2490E+00  0.3767E+01
      1.550  0.2313E+00  0.3778E+01
      1.593  0.2176E+00  0.3788E+01
      1.637  0.2080E+00  0.3797E+01
      1.680  0.2199E+00  0.3806E+01
      1.723  0.2606E+00  0.3816E+01
      1.767  0.3294E+00  0.3829E+01
      1.810  0.4264E+00  0.3845E+01
      1.853  0.5514E+00  0.3866E+01
      1.897  0.7046E+00  0.3893E+01
      1.940  0.8860E+00  0.3928E+01
      1.983  0.1051E+01  0.3970E+01
      2.027  0.1207E+01  0.4019E+01
      2.070  0.1355E+01  0.4074E+01
      2.113  0.1496E+01  0.4136E+01
      2.157  0.1629E+01  0.4204E+01
      2.200  0.1755E+01  0.4277E+01
      2.243  0.1874E+01  0.4356E+01
      2.287  0.2050E+01  0.4440E+01
      2.330  0.2204E+01  0.4533E+01
      2.373  0.2212E+01  0.4629E+01
      2.417  0.2146E+01  0.4724E+01
      2.460  0.2515E+01  0.4818E+01
      2.503  0.3282E+01  0.4946E+01
      2.547  0.4249E+01  0.5101E+01
      2.590  0.7187E+01  0.5347E+01
      2.633  0.7460E+01  0.5678E+01
      2.677  0.4161E+01  0.5936E+01
      2.720  0.3342E+01  0.6090E+01
      2.763  0.3128E+01  0.6230E+01
      2.807  0.2954E+01  0.6361E+01
      2.850  0.2817E+01  0.6486E+01
      2.893  0.2685E+01  0.6606E+01
      2.937  0.2545E+01  0.6719E+01
      2.980  0.2397E+01  0.6826E+01
      3.023  0.2242E+01  0.6927E+01
      3.067  0.1950E+01  0.7015E+01
      3.110  0.1860E+01  0.7098E+01
      3.153  0.1779E+01  0.7176E+01
      3.197  0.1700E+01  0.7252E+01
      3.240  0.1609E+01  0.7324E+01
      3.283  0.1509E+01  0.7391E+01
      3.327  0.1397E+01  0.7454E+01
      3.370  0.1249E+01  0.7512E+01
      3.413  0.1137E+01  0.7563E+01
      3.457  0.1025E+01  0.7610E+01
      3.500  0.9123E+00  0.7652E+01
      3.543  0.8062E+00  0.7689E+01
      3.587  0.7279E+00  0.7723E+01
      3.630  0.6780E+00  0.7753E+01
      3.673  0.6378E+00  0.7781E+01
      3.717  0.5991E+00  0.7808E+01
      3.760  0.5621E+00  0.7833E+01
      3.803  0.5268E+00  0.7857E+01
      3.847  0.4831E+00  0.7879E+01
      3.890  0.4129E+00  0.7898E+01
      3.933  0.3507E+00  0.7915E+01
      3.977  0.2964E+00  0.7929E+01
      4.020  0.2501E+00  0.7941E+01
      4.063  0.2117E+00  0.7951E+01
      4.107  0.1813E+00  0.7959E+01
      4.150  0.1581E+00  0.7966E+01
      4.193  0.1373E+00  0.7973E+01
      4.237  0.1180E+00  0.7978E+01
      4.280  0.1001E+00  0.7983E+01
      4.323  0.8369E-01  0.7987E+01
      4.367  0.6876E-01  0.7990E+01
      4.410  0.5530E-01  0.7993E+01
      4.453  0.4330E-01  0.7995E+01
      4.497  0.3276E-01  0.7997E+01
      4.540  0.2370E-01  0.7998E+01
      4.583  0.1609E-01  0.7999E+01
      4.627  0.9958E-02  0.7999E+01
      4.670  0.5287E-02  0.8000E+01
      4.713  0.2083E-02  0.8000E+01
      4.757  0.3448E-03  0.8000E+01
      4.800  0.0000E+00  0.8000E+01
      4.843  0.0000E+00  0.8000E+01
      4.887  0.0000E+00  0.8000E+01
      4.930  0.0000E+00  0.8000E+01
      4.973  0.0000E+00  0.8000E+01
      5.017  0.0000E+00  0.8000E+01
      5.060  0.0000E+00  0.8000E+01
      5.103  0.0000E+00  0.8000E+01
      5.147  0.1992E-02  0.8000E+01
      5.190  0.9159E-02  0.8000E+01
      5.233  0.2154E-01  0.8001E+01
      5.277  0.3914E-01  0.8002E+01
      5.320  0.6195E-01  0.8004E+01
      5.363  0.8989E-01  0.8008E+01
      5.407  0.1221E+00  0.8012E+01
      5.450  0.1583E+00  0.8018E+01
      5.493  0.1985E+00  0.8026E+01
      5.537  0.2427E+00  0.8036E+01
      5.580  0.2909E+00  0.8047E+01
      5.623  0.3431E+00  0.8061E+01
      5.667  0.3994E+00  0.8077E+01
      5.710  0.4596E+00  0.8095E+01
      5.753  0.5239E+00  0.8117E+01
      5.797  0.5922E+00  0.8141E+01
      5.840  0.6618E+00  0.8168E+01
      5.883  0.7478E+00  0.8199E+01
      5.927  0.8601E+00  0.8233E+01
      5.970  0.9989E+00  0.8273E+01
      6.013  0.1164E+01  0.8320E+01
      6.057  0.1354E+01  0.8375E+01
      6.100  0.1546E+01  0.8438E+01
      6.143  0.1737E+01  0.8509E+01
      6.187  0.1925E+01  0.8588E+01
      6.230  0.2111E+01  0.8676E+01
      6.273  0.2322E+01  0.8771E+01
      6.317  0.2468E+01  0.8876E+01
      6.360  0.2494E+01  0.8983E+01
      6.403  0.2637E+01  0.9094E+01
      6.447  0.2858E+01  0.9213E+01
      6.490  0.3117E+01  0.9342E+01
      6.533  0.3410E+01  0.9484E+01
      6.577  0.3773E+01  0.9639E+01
      6.620  0.4978E+01  0.9824E+01
      6.663  0.5055E+01  0.1005E+02
      6.707  0.3563E+01  0.1024E+02
      6.750  0.3964E+01  0.1040E+02
      6.793  0.4749E+01  0.1059E+02
      6.837  0.6538E+01  0.1080E+02
      6.880  0.9693E+01  0.1117E+02
      6.923  0.9352E+01  0.1159E+02
      6.967  0.6596E+01  0.1194E+02
      7.010  0.5094E+01  0.1218E+02
      7.053  0.4741E+01  0.1239E+02
      7.097  0.2821E+01  0.1255E+02
      7.140  0.4617E+01  0.1270E+02
      7.183  0.1273E+02  0.1303E+02
      7.227  0.1602E+02  0.1402E+02
      7.270  0.2054E+01  0.1420E+02
      7.313  0.2602E+01  0.1430E+02
      7.357  0.3610E+01  0.1443E+02
      7.400  0.4198E+01  0.1461E+02
      7.443  0.3767E+01  0.1478E+02
      7.487  0.3389E+01  0.1493E+02
      7.530  0.3234E+01  0.1508E+02
      7.573  0.2907E+01  0.1521E+02
      7.617  0.2405E+01  0.1533E+02
      7.660  0.2212E+01  0.1543E+02
      7.703  0.2155E+01  0.1552E+02
      7.747  0.2117E+01  0.1561E+02
      7.790  0.2101E+01  0.1571E+02
      7.833  0.2111E+01  0.1580E+02
      7.877  0.2100E+01  0.1589E+02
      7.920  0.2071E+01  0.1598E+02
      7.963  0.2068E+01  0.1607E+02
      8.007  0.2073E+01  0.1616E+02
      8.050  0.2070E+01  0.1625E+02
      8.093  0.2061E+01  0.1634E+02
      8.137  0.2045E+01  0.1643E+02
      8.180  0.2023E+01  0.1651E+02
      8.223  0.2003E+01  0.1660E+02
      8.267  0.1988E+01  0.1669E+02
      8.310  0.1972E+01  0.1677E+02
      8.353  0.2018E+01  0.1686E+02
      8.397  0.2110E+01  0.1695E+02
      8.440  0.2138E+01  0.1704E+02
      8.483  0.2102E+01  0.1713E+02
      8.527  0.2103E+01  0.1722E+02
      8.570  0.2136E+01  0.1732E+02
      8.613  0.2116E+01  0.1741E+02
      8.657  0.1997E+01  0.1750E+02
      8.700  0.1829E+01  0.1758E+02
      8.743  0.1658E+01  0.1766E+02
      8.787  0.1486E+01  0.1772E+02
      8.830  0.1313E+01  0.1778E+02
      8.873  0.1140E+01  0.1784E+02
      8.917  0.9663E+00  0.1788E+02
      8.960  0.7921E+00  0.1792E+02
      9.003  0.6173E+00  0.1795E+02
      9.047  0.4420E+00  0.1798E+02
      9.090  0.2661E+00  0.1799E+02
      9.133  0.8973E-01  0.1800E+02
      9.177  0.6687E-02  0.1800E+02
      9.220  0.0000E+00  0.1800E+02
      9.263  0.0000E+00  0.1800E+02
      9.307  0.0000E+00  0.1800E+02
      9.350  0.0000E+00  0.1800E+02
      9.393  0.0000E+00  0.1800E+02
      9.437  0.0000E+00  0.1800E+02
      9.480  0.0000E+00  0.1800E+02
      9.523  0.0000E+00  0.1800E+02
      9.567  0.0000E+00  0.1800E+02
      9.610  0.5364E-05  0.1800E+02
      9.653  0.7311E-04  0.1800E+02
      9.697  0.2186E-03  0.1800E+02
      9.740  0.4418E-03  0.1800E+02
      9.783  0.7428E-03  0.1800E+02
      9.827  0.1122E-02  0.1800E+02
      9.870  0.1578E-02  0.1800E+02
      9.913  0.2112E-02  0.1800E+02
      9.957  0.2724E-02  0.1800E+02
     10.000  0.3414E-02  0.1800E+02
     10.00000000     -3.00000000  301      7.93048014      1.00000000
     -3.000  0.0000E+00  0.0000E+00  0.0000E+00  0.0000E+00  0.0000E+00  0.0000E+00  0.0000E+00  0.0000E+00  0.0000E+00
     -2.957  0.0000E+00  0.0000E+00  0.0000E+00  0.0000E+00  0.0000E+00  0.0000E+00  0.0000E+00  0.0000E+00  0.0000E+00
     -2.913  0.0000E+00  0.0000E+00  0.0000E+00  0.0000E+00  0.0000E+00  0.0000E+00  0.0000E+00  0.0000E+00  0.0000E+00
     -2.870  0.0000E+00  0.0000E+00  0.0000E+00  0.0000E+00  0.0000E+00  0.0000E+00  0.0000E+00  0.0000E+00  0.0000E+00
     -2.827  0.0000E+00  0.0000E+00  0.0000E+00  0.0000E+00  0.0000E+00  0.0000E+00  0.0000E+00  0.0000E+00  0.0000E+00
     -2.783  0.0000E+00  0.0000E+00  0.0000E+00  0.0000E+00  0.0000E+00  0.0000E+00  0.0000E+00  0.0000E+00  0.0000E+00
     -2.740  0.0000E+00  0.0000E+00  0.0000E+00  0.0000E+00  0.0000E+00  0.0000E+00  0.0000E+00  0.0000E+00  0.0000E+00
     -2.697  0.0000E+00  0.0000E+00  0.0000E+00  0.0000E+00  0.0000E+00  0.0000E+00  0.0000E+00  0.0000E+00  0.0000E+00
     -2.653  0.0000E+00  0.0000E+00  0.0000E+00  0.0000E+00  0.0000E+00  0.0000E+00  0.0000E+00  0.0000E+00  0.0000E+00
     -2.610  0.0000E+00  0.0000E+00  0.0000E+00  0.0000E+00  0.0000E+00  0.0000E+00  0.0000E+00  0.0000E+00  0.0000E+00
     -2.567  0.0000E+00  0.0000E+00  0.0000E+00  0.0000E+00  0.0000E+00  0.0000E+00  0.0000E+00  0.0000E+00  0.0000E+00
     -2.523  0.0000E+00  0.0000E+00  0.0000E+00  0.0000E+00  0.0000E+00  0.0000E+00  0.0000E+00  0.0000E+00  0.0000E+00
     -2.480  0.0000E+00  0.0000E+00  0.0000E+00  0.0000E+00  0.0000E+00  0.0000E+00  0.0000E+00  0.0000E+00  0.0000E+00
     -2.437  0.0000E+00  0.0000E+00  0.0000E+00  0.0000E+00  0.0000E+00  0.0000E+00  0.0000E+00  0.0000E+00  0.0000E+00
     -2.393  0.0000E+00  0.0000E+00  0.0000E+00  0.0000E+00  0.0000E+00  0.0000E+00  0.0000E+00  0.0000E+00  0.0000E+00
     -2.350  0.0000E+00  0.0000E+00  0.0000E+00  0.0000E+00  0.0000E+00  0.0000E+00  0.0000E+00  0.0000E+00  0.0000E+00
     -2.307  0.0000E+00  0.0000E+00  0.0000E+00  0.0000E+00  0.0000E+00  0.0000E+00  0.0000E+00  0.0000E+00  0.0000E+00
     -2.263  0.0000E+00  0.0000E+00  0.0000E+00  0.0000E+00  0.0000E+00  0.0000E+00  0.0000E+00  0.0000E+00  0.0000E+00
     -2.220  0.0000E+00  0.0000E+00  0.0000E+00  0.0000E+00  0.0000E+00  0.0000E+00  0.0000E+00  0.0000E+00  0.0000E+00
     -2.177  0.0000E+00  0.0000E+00  0.0000E+00  0.0000E+00  0.0000E+00  0.0000E+00  0.0000E+00  0.0000E+00  0.0000E+00
     -2.133  0.0000E+00  0.0000E+00  0.0000E+00  0.0000E+00  0.0000E+00  0.0000E+00  0.0000E+00  0.0000E+00  0.0000E+00
     -2.090  0.0000E+00  0.0000E+00  0.0000E+00  0.0000E+00  0.0000E+00  0.0000E+00  0.0000E+00  0.0000E+00  0.0000E+00
     -2.047  0.0000E+00  0.0000E+00  0.0000E+00  0.0000E+00  0.0000E+00  0.0000E+00  0.0000E+00  0.0000E+00  0.0000E+00
     -2.003  0.0000E+00  0.0000E+00  0.0000E+00  0.0000E+00  0.0000E+00  0.0000E+00  0.0000E+00  0.0000E+00  0.0000E+00
     -1.960  0.0000E+00  0.0000E+00  0.0000E+00  0.0000E+00  0.0000E+00  0.0000E+00  0.0000E+00  0.0000E+00  0.0000E+00
     -1.917  0.0000E+00  0.0000E+00  0.0000E+00  0.0000E+00  0.0000E+00  0.0000E+00  0.0000E+00  0.0000E+00  0.0000E+00
     -1.873  0.0000E+00  0.0000E+00  0.0000E+00  0.0000E+00  0.0000E+00  0.0000E+00  0.0000E+00  0.0000E+00  0.0000E+00
     -1.830  0.0000E+00  0.0000E+00  0.0000E+00  0.0000E+00  0.0000E+00  0.0000E+00  0.0000E+00  0.0000E+00  0.0000E+00
     -1.787  0.0000E+00  0.0000E+00  0.0000E+00  0.0000E+00  0.0000E+00  0.0000E+00  0.0000E+00  0.0000E+00  0.0000E+00
     -1.743  0.0000E+00  0.0000E+00  0.0000E+00  0.0000E+00  0.0000E+00  0.0000E+00  0.0000E+00  0.0000E+00  0.0000E+00
     -1.700  0.0000E+00  0.0000E+00  0.0000E+00  0.0000E+00  0.0000E+00  0.0000E+00  0.0000E+00  0.0000E+00  0.0000E+00
     -1.657  0.0000E+00  0.0000E+00  0.0000E+00  0.0000E+00  0.0000E+00  0.0000E+00  0.0000E+00  0.0000E+00  0.0000E+00
     -1.613  0.0000E+00  0.0000E+00  0.0000E+00  0.0000E+00  0.0000E+00  0.0000E+00  0.0000E+00  0.0000E+00  0.0000E+00
     -1.570  0.0000E+00  0.0000E+00  0.0000E+00  0.0000E+00  0.0000E+00  0.0000E+00  0.0000E+00  0.0000E+00  0.0000E+00
     -1.527  0.0000E+00  0.0000E+00  0.0000E+00  0.0000E+00  0.0000E+00  0.0000E+00  0.0000E+00  0.0000E+00  0.0000E+00
     -1.483  0.0000E+00  0.0000E+00  0.0000E+00  0.0000E+00  0.0000E+00  0.0000E+00  0.0000E+00  0.0000E+00  0.0000E+00
     -1.440  0.0000E+00  0.0000E+00  0.0000E+00  0.0000E+00  0.0000E+00  0.0000E+00  0.0000E+00  0.0000E+00  0.0000E+00
     -1.397  0.0000E+00  0.0000E+00  0.0000E+00  0.0000E+00  0.0000E+00  0.0000E+00  0.0000E+00  0.0000E+00  0.0000E+00
     -1.353  0.0000E+00  0.0000E+00  0.0000E+00  0.0000E+00  0.0000E+00  0.0000E+00  0.0000E+00  0.0000E+00  0.0000E+00
     -1.310  0.0000E+00  0.0000E+00  0.0000E+00  0.0000E+00  0.0000E+00  0.0000E+00  0.0000E+00  0.0000E+00  0.0000E+00
     -1.267  0.0000E+00  0.0000E+00  0.0000E+00  0.0000E+00  0.0000E+00  0.0000E+00  0.0000E+00  0.0000E+00  0.0000E+00
     -1.223  0.0000E+00  0.0000E+00  0.0000E+00  0.0000E+00  0.0000E+00  0.0000E+00  0.0000E+00  0.0000E+00  0.0000E+00
     -1.180  0.0000E+00  0.0000E+00  0.0000E+00  0.0000E+00  0.0000E+00  0.0000E+00  0.0000E+00  0.0000E+00  0.0000E+00
     -1.137  0.0000E+00  0.0000E+00  0.0000E+00  0.0000E+00  0.0000E+00  0.0000E+00  0.0000E+00  0.0000E+00  0.0000E+00
     -1.093  0.0000E+00  0.0000E+00  0.0000E+00  0.0000E+00  0.0000E+00  0.0000E+00  0.0000E+00  0.0000E+00  0.0000E+00
     -1.050  0.0000E+00  0.0000E+00  0.0000E+00  0.0000E+00  0.0000E+00  0.0000E+00  0.0000E+00  0.0000E+00  0.0000E+00
     -1.007  0.0000E+00  0.0000E+00  0.0000E+00  0.0000E+00  0.0000E+00  0.0000E+00  0.0000E+00  0.0000E+00  0.0000E+00
     -0.963  0.0000E+00  0.0000E+00  0.0000E+00  0.0000E+00  0.0000E+00  0.0000E+00  0.0000E+00  0.0000E+00  0.0000E+00
     -0.920  0.0000E+00  0.0000E+00  0.0000E+00  0.0000E+00  0.0000E+00  0.0000E+00  0.0000E+00  0.0000E+00  0.0000E+00
     -0.877  0.0000E+00  0.0000E+00  0.0000E+00  0.0000E+00  0.0000E+00  0.0000E+00  0.0000E+00  0.0000E+00  0.0000E+00
     -0.833  0.0000E+00  0.0000E+00  0.0000E+00  0.0000E+00  0.0000E+00  0.0000E+00  0.0000E+00  0.0000E+00  0.0000E+00
     -0.790  0.0000E+00  0.0000E+00  0.0000E+00  0.0000E+00  0.0000E+00  0.0000E+00  0.0000E+00  0.0000E+00  0.0000E+00
     -0.747  0.0000E+00  0.0000E+00  0.0000E+00  0.0000E+00  0.0000E+00  0.0000E+00  0.0000E+00  0.0000E+00  0.0000E+00
     -0.703  0.0000E+00  0.0000E+00  0.0000E+00  0.0000E+00  0.0000E+00  0.0000E+00  0.0000E+00  0.0000E+00  0.0000E+00
     -0.660  0.0000E+00  0.0000E+00  0.0000E+00  0.0000E+00  0.0000E+00  0.0000E+00  0.0000E+00  0.0000E+00  0.0000E+00
     -0.617  0.0000E+00  0.0000E+00  0.0000E+00  0.0000E+00  0.0000E+00  0.0000E+00  0.0000E+00  0.0000E+00  0.0000E+00
     -0.573  0.0000E+00  0.0000E+00  0.0000E+00  0.0000E+00  0.0000E+00  0.0000E+00  0.0000E+00  0.0000E+00  0.0000E+00
     -0.530  0.0000E+00  0.0000E+00  0.0000E+00  0.0000E+00  0.0000E+00  0.0000E+00  0.0000E+00  0.0000E+00  0.0000E+00
     -0.487  0.0000E+00  0.0000E+00  0.0000E+00  0.0000E+00  0.0000E+00  0.0000E+00  0.0000E+00  0.0000E+00  0.0000E+00
     -0.443  0.0000E+00  0.0000E+00  0.0000E+00  0.0000E+00  0.0000E+00  0.0000E+00  0.0000E+00  0.0000E+00  0.0000E+00
     -0.400  0.0000E+00  0.0000E+00  0.0000E+00  0.0000E+00  0.0000E+00  0.0000E+00  0.0000E+00  0.0000E+00  0.0000E+00
     -0.357  0.0000E+00  0.0000E+00  0.0000E+00  0.0000E+00  0.0000E+00  0.0000E+00  0.0000E+00  0.0000E+00  0.0000E+00
     -0.313  0.0000E+00  0.0000E+00  0.0000E+00  0.0000E+00  0.0000E+00  0.0000E+00  0.0000E+00  0.0000E+00  0.0000E+00
     -0.270  0.2442E-05  0.7520E-07  0.7520E-07  0.7520E-07  0.4860E-06  0.4860E-06  0.6163E-07  0.4860E-06  0.6163E-07
     -0.227  0.6096E-03  0.1878E-04  0.1878E-04  0.1878E-04  0.1213E-03  0.1213E-03  0.1539E-04  0.1213E-03  0.1539E-04
     -0.183  0.2287E-02  0.7043E-04  0.7043E-04  0.7043E-04  0.4552E-03  0.4552E-03  0.5772E-04  0.4552E-03  0.5772E-04
     -0.140  0.5034E-02  0.1550E-03  0.1550E-03  0.1550E-03  0.1002E-02  0.1002E-02  0.1270E-03  0.1002E-02  0.1271E-03
     -0.097  0.8850E-02  0.2726E-03  0.2726E-03  0.2726E-03  0.1762E-02  0.1762E-02  0.2234E-03  0.1762E-02  0.2234E-03
     -0.053  0.1374E-01  0.4231E-03  0.4231E-03  0.4231E-03  0.2734E-02  0.2734E-02  0.3467E-03  0.2734E-02  0.3467E-03
     -0.010  0.1969E-01  0.6065E-03  0.6065E-03  0.6065E-03  0.3920E-02  0.3920E-02  0.4971E-03  0.3920E-02  0.4971E-03
      0.033  0.2672E-01  0.8229E-03  0.8229E-03  0.8229E-03  0.5318E-02  0.5318E-02  0.6744E-03  0.5318E-02  0.6744E-03
      0.077  0.3482E-01  0.1072E-02  0.1072E-02  0.1072E-02  0.6930E-02  0.6930E-02  0.8788E-03  0.6930E-02  0.8788E-03
      0.120  0.4398E-01  0.1355E-02  0.1355E-02  0.1355E-02  0.8754E-02  0.8754E-02  0.1110E-02  0.8754E-02  0.1110E-02
      0.163  0.5422E-01  0.1670E-02  0.1670E-02  0.1670E-02  0.1079E-01  0.1079E-01  0.1368E-02  0.1079E-01  0.1368E-02
      0.207  0.6552E-01  0.2018E-02  0.2018E-02  0.2018E-02  0.1304E-01  0.1304E-01  0.1654E-02  0.1304E-01  0.1654E-02
      0.250  0.7790E-01  0.2399E-02  0.2399E-02  0.2399E-02  0.1551E-01  0.1551E-01  0.1966E-02  0.1551E-01  0.1966E-02
      0.293  0.8347E-01  0.3299E-02  0.3299E-02  0.3299E-02  0.1689E-01  0.1689E-01  0.2470E-02  0.1689E-01  0.2470E-02
      0.337  0.8870E-01  0.4471E-02  0.4470E-02  0.4471E-02  0.1820E-01  0.1820E-01  0.3531E-02  0.1820E-01  0.3532E-02
      0.380  0.9603E-01  0.5783E-02  0.5782E-02  0.5782E-02  0.1981E-01  0.1981E-01  0.5163E-02  0.1981E-01  0.5163E-02
      0.423  0.1054E+00  0.7235E-02  0.7235E-02  0.7235E-02  0.2173E-01  0.2173E-01  0.7365E-02  0.2173E-01  0.7365E-02
      0.467  0.1195E+00  0.8980E-02  0.8980E-02  0.8980E-02  0.2443E-01  0.2443E-01  0.1058E-01  0.2443E-01  0.1059E-01
      0.510  0.1371E+00  0.1098E-01  0.1098E-01  0.1098E-01  0.2777E-01  0.2777E-01  0.1452E-01  0.2777E-01  0.1452E-01
      0.553  0.1525E+00  0.1290E-01  0.1290E-01  0.1290E-01  0.3071E-01  0.3071E-01  0.1811E-01  0.3071E-01  0.1811E-01
      0.597  0.1659E+00  0.1474E-01  0.1474E-01  0.1474E-01  0.3326E-01  0.3326E-01  0.2135E-01  0.3326E-01  0.2135E-01
      0.640  0.1771E+00  0.1650E-01  0.1650E-01  0.1650E-01  0.3542E-01  0.3542E-01  0.2424E-01  0.3542E-01  0.2424E-01
      0.683  0.1861E+00  0.1818E-01  0.1818E-01  0.1818E-01  0.3717E-01  0.3717E-01  0.2678E-01  0.3717E-01  0.2678E-01
      0.727  0.1930E+00  0.1978E-01  0.1978E-01  0.1978E-01  0.3853E-01  0.3853E-01  0.2897E-01  0.3853E-01  0.2897E-01
      0.770  0.1978E+00  0.2132E-01  0.2132E-01  0.2132E-01  0.3951E-01  0.3951E-01  0.3085E-01  0.3951E-01  0.3085E-01
      0.813  0.2006E+00  0.2282E-01  0.2282E-01  0.2282E-01  0.4010E-01  0.4010E-01  0.3243E-01  0.4010E-01  0.3243E-01
      0.857  0.2012E+00  0.2427E-01  0.2427E-01  0.2427E-01  0.4030E-01  0.4030E-01  0.3371E-01  0.4030E-01  0.3371E-01
      0.900  0.2230E+00  0.3552E-01  0.3551E-01  0.3552E-01  0.4520E-01  0.4520E-01  0.4277E-01  0.4520E-01  0.4277E-01
      0.943  0.3063E+00  0.7537E-01  0.7535E-01  0.7536E-01  0.6350E-01  0.6349E-01  0.7411E-01  0.6349E-01  0.7412E-01
      0.987  0.3266E+00  0.1455E+00  0.1456E+00  0.1456E+00  0.6995E-01  0.6995E-01  0.9916E-01  0.6995E-01  0.9913E-01
      1.030  0.2479E+00  0.1007E+00  0.1007E+00  0.1007E+00  0.5747E-01  0.5747E-01  0.6750E-01  0.5747E-01  0.6750E-01
      1.073  0.2010E+00  0.8237E-01  0.8237E-01  0.8237E-01  0.4744E-01  0.4744E-01  0.5527E-01  0.4744E-01  0.5527E-01
      1.117  0.1548E+00  0.5779E-01  0.5780E-01  0.5779E-01  0.3579E-01  0.3579E-01  0.4293E-01  0.3579E-01  0.4293E-01
      1.160  0.1153E+00  0.3675E-01  0.3675E-01  0.3675E-01  0.2572E-01  0.2572E-01  0.3237E-01  0.2572E-01  0.3237E-01
      1.203  0.8341E-01  0.2059E-01  0.2059E-01  0.2059E-01  0.1767E-01  0.1767E-01  0.2383E-01  0.1767E-01  0.2383E-01
      1.247  0.6237E-01  0.9904E-02  0.9905E-02  0.9904E-02  0.1195E-01  0.1195E-01  0.1922E-01  0.1195E-01  0.1922E-01
      1.290  0.4844E-01  0.3437E-02  0.3437E-02  0.3437E-02  0.8093E-02  0.8093E-02  0.1653E-01  0.8093E-02  0.1653E-01
      1.333  0.4220E-01  0.2101E-02  0.2101E-02  0.2101E-02  0.6767E-02  0.6767E-02  0.1515E-01  0.6767E-02  0.1515E-01
      1.377  0.3787E-01  0.1837E-02  0.1837E-02  0.1837E-02  0.6078E-02  0.6078E-02  0.1400E-01  0.6078E-02  0.1400E-01
      1.420  0.3405E-01  0.1604E-02  0.1604E-02  0.1604E-02  0.5475E-02  0.5475E-02  0.1298E-01  0.5475E-02  0.1298E-01
      1.463  0.3075E-01  0.1402E-02  0.1402E-02  0.1402E-02  0.4957E-02  0.4957E-02  0.1207E-01  0.4957E-02  0.1207E-01
      1.507  0.2796E-01  0.1232E-02  0.1232E-02  0.1232E-02  0.4525E-02  0.4525E-02  0.1129E-01  0.4525E-02  0.1129E-01
      1.550  0.2569E-01  0.1094E-02  0.1094E-02  0.1094E-02  0.4179E-02  0.4179E-02  0.1063E-01  0.4179E-02  0.1063E-01
      1.593  0.2393E-01  0.9871E-03  0.9871E-03  0.9871E-03  0.3918E-02  0.3918E-02  0.1009E-01  0.3918E-02  0.1009E-01
      1.637  0.2269E-01  0.9220E-03  0.9220E-03  0.9220E-03  0.3751E-02  0.3751E-02  0.9677E-02  0.3751E-02  0.9677E-02
      1.680  0.2198E-01  0.1514E-02  0.1514E-02  0.1514E-02  0.4186E-02  0.4186E-02  0.9943E-02  0.4186E-02  0.9943E-02
      1.723  0.2145E-01  0.3103E-02  0.3103E-02  0.3103E-02  0.5462E-02  0.5462E-02  0.1112E-01  0.5462E-02  0.1113E-01
      1.767  0.2100E-01  0.5684E-02  0.5684E-02  0.5684E-02  0.7563E-02  0.7563E-02  0.1320E-01  0.7563E-02  0.1320E-01
      1.810  0.2065E-01  0.9257E-02  0.9256E-02  0.9257E-02  0.1049E-01  0.1049E-01  0.1617E-01  0.1049E-01  0.1617E-01
      1.853  0.2038E-01  0.1382E-01  0.1382E-01  0.1382E-01  0.1424E-01  0.1424E-01  0.2003E-01  0.1424E-01  0.2003E-01
      1.897  0.2020E-01  0.1938E-01  0.1938E-01  0.1938E-01  0.1882E-01  0.1882E-01  0.2479E-01  0.1882E-01  0.2479E-01
      1.940  0.2011E-01  0.2592E-01  0.2592E-01  0.2592E-01  0.2422E-01  0.2422E-01  0.3044E-01  0.2422E-01  0.3044E-01
      1.983  0.2007E-01  0.3149E-01  0.3149E-01  0.3149E-01  0.2929E-01  0.2929E-01  0.3630E-01  0.2929E-01  0.3631E-01
      2.027  0.2002E-01  0.3639E-01  0.3639E-01  0.3639E-01  0.3403E-01  0.3403E-01  0.4280E-01  0.3403E-01  0.4280E-01
      2.070  0.1998E-01  0.4075E-01  0.4075E-01  0.4075E-01  0.3853E-01  0.3853E-01  0.4998E-01  0.3853E-01  0.4998E-01
      2.113  0.1993E-01  0.4457E-01  0.4457E-01  0.4457E-01  0.4277E-01  0.4277E-01  0.5783E-01  0.4277E-01  0.5784E-01
      2.157  0.1988E-01  0.4785E-01  0.4785E-01  0.4785E-01  0.4677E-01  0.4677E-01  0.6638E-01  0.4677E-01  0.6638E-01
      2.200  0.1982E-01  0.5059E-01  0.5059E-01  0.5059E-01  0.5050E-01  0.5050E-01  0.7560E-01  0.5050E-01  0.7560E-01
      2.243  0.1977E-01  0.5279E-01  0.5278E-01  0.5278E-01  0.5399E-01  0.5399E-01  0.8550E-01  0.5399E-01  0.8551E-01
      2.287  0.1978E-01  0.5403E-01  0.5403E-01  0.5403E-01  0.5784E-01  0.5790E-01  0.1041E+00  0.5886E-01  0.1127E+00
      2.330  0.1981E-01  0.5308E-01  0.5305E-01  0.5305E-01  0.6033E-01  0.6047E-01  0.1236E+00  0.6322E-01  0.1479E+00
      2.373  0.1973E-01  0.5002E-01  0.4995E-01  0.4995E-01  0.5985E-01  0.6006E-01  0.1294E+00  0.6397E-01  0.1638E+00
      2.417  0.1989E-01  0.4748E-01  0.4717E-01  0.4730E-01  0.5865E-01  0.5888E-01  0.1228E+00  0.6332E-01  0.1617E+00
      2.460  0.4116E-01  0.4928E-01  0.4836E-01  0.4888E-01  0.5704E-01  0.5726E-01  0.1628E+00  0.6160E-01  0.2005E+00
      2.503  0.5976E-01  0.5594E-01  0.5416E-01  0.5534E-01  0.6085E-01  0.6101E-01  0.2602E+00  0.6414E-01  0.2872E+00
      2.547  0.5183E-01  0.6130E-01  0.5841E-01  0.6049E-01  0.7028E-01  0.7018E-01  0.4300E+00  0.6993E-01  0.4278E+00
      2.590  0.5548E-01  0.6833E-01  0.6459E-01  0.6734E-01  0.7820E-01  0.7720E-01  0.9606E+00  0.7209E-01  0.9181E+00
      2.633  0.5277E-01  0.6905E-01  0.6505E-01  0.6801E-01  0.7808E-01  0.7676E-01  0.1010E+01  0.7098E-01  0.9632E+00
      2.677  0.3710E-01  0.5082E-01  0.4662E-01  0.4969E-01  0.5855E-01  0.5718E-01  0.4770E+00  0.5468E-01  0.4598E+00
      2.720  0.3108E-01  0.4525E-01  0.4090E-01  0.4402E-01  0.5480E-01  0.5330E-01  0.3485E+00  0.5165E-01  0.3396E+00
      2.763  0.2874E-01  0.4337E-01  0.3900E-01  0.4209E-01  0.5289E-01  0.5129E-01  0.3156E+00  0.5026E-01  0.3125E+00
      2.807  0.2647E-01  0.4160E-01  0.3734E-01  0.4030E-01  0.5143E-01  0.4979E-01  0.2901E+00  0.4915E-01  0.2906E+00
      2.850  0.2427E-01  0.3992E-01  0.3590E-01  0.3864E-01  0.5039E-01  0.4876E-01  0.2718E+00  0.4827E-01  0.2736E+00
      2.893  0.2212E-01  0.3820E-01  0.3453E-01  0.3696E-01  0.4912E-01  0.4757E-01  0.2549E+00  0.4719E-01  0.2574E+00
      2.937  0.2003E-01  0.3637E-01  0.3317E-01  0.3519E-01  0.4739E-01  0.4598E-01  0.2371E+00  0.4572E-01  0.2400E+00
      2.980  0.1798E-01  0.3445E-01  0.3180E-01  0.3333E-01  0.4521E-01  0.4400E-01  0.2184E+00  0.4387E-01  0.2217E+00
      3.023  0.1615E-01  0.3240E-01  0.3044E-01  0.3137E-01  0.4259E-01  0.4166E-01  0.1990E+00  0.4167E-01  0.2024E+00
      3.067  0.1421E-01  0.2802E-01  0.2637E-01  0.2698E-01  0.3710E-01  0.3511E-01  0.1689E+00  0.3423E-01  0.1715E+00
      3.110  0.1295E-01  0.2670E-01  0.2625E-01  0.2602E-01  0.3614E-01  0.3435E-01  0.1570E+00  0.3334E-01  0.1583E+00
      3.153  0.1179E-01  0.2548E-01  0.2633E-01  0.2519E-01  0.3512E-01  0.3360E-01  0.1462E+00  0.3249E-01  0.1464E+00
      3.197  0.1044E-01  0.2423E-01  0.2635E-01  0.2434E-01  0.3402E-01  0.3285E-01  0.1362E+00  0.3170E-01  0.1351E+00
      3.240  0.9079E-02  0.2283E-01  0.2580E-01  0.2322E-01  0.3282E-01  0.3189E-01  0.1263E+00  0.3064E-01  0.1239E+00
      3.283  0.7835E-02  0.2127E-01  0.2470E-01  0.2184E-01  0.3152E-01  0.3068E-01  0.1166E+00  0.2927E-01  0.1129E+00
      3.327  0.6704E-02  0.1955E-01  0.2305E-01  0.2019E-01  0.3014E-01  0.2921E-01  0.1070E+00  0.2758E-01  0.1021E+00
      3.370  0.5037E-02  0.1710E-01  0.2148E-01  0.1818E-01  0.2768E-01  0.2865E-01  0.8957E-01  0.2821E-01  0.8384E-01
      3.413  0.4063E-02  0.1520E-01  0.1939E-01  0.1629E-01  0.2606E-01  0.2758E-01  0.7950E-01  0.2764E-01  0.7444E-01
      3.457  0.3271E-02  0.1330E-01  0.1704E-01  0.1432E-01  0.2446E-01  0.2633E-01  0.7037E-01  0.2674E-01  0.6587E-01
      3.500  0.2661E-02  0.1140E-01  0.1443E-01  0.1228E-01  0.2286E-01  0.2489E-01  0.6220E-01  0.2554E-01  0.5815E-01
      3.543  0.2219E-02  0.9641E-02  0.1183E-01  0.1033E-01  0.2130E-01  0.2334E-01  0.5518E-01  0.2412E-01  0.5147E-01
      3.587  0.1904E-02  0.8394E-02  0.1009E-01  0.8981E-02  0.1991E-01  0.2194E-01  0.4993E-01  0.2280E-01  0.4646E-01
      3.630  0.1711E-02  0.7672E-02  0.9224E-02  0.8244E-02  0.1868E-01  0.2071E-01  0.4647E-01  0.2159E-01  0.4312E-01
      3.673  0.1557E-02  0.7114E-02  0.8626E-02  0.7695E-02  0.1752E-01  0.1952E-01  0.4378E-01  0.2038E-01  0.4043E-01
      3.717  0.1410E-02  0.6567E-02  0.8029E-02  0.7154E-02  0.1639E-01  0.1832E-01  0.4143E-01  0.1915E-01  0.3799E-01
      3.760  0.1267E-02  0.6030E-02  0.7434E-02  0.6619E-02  0.1528E-01  0.1713E-01  0.3944E-01  0.1789E-01  0.3578E-01