Automatically generated mesh
     216
Reciprocal lattice
    0.00000000000000    0.00000000000000    0.00000000000000             1
    0.16666666666667    0.00000000000000    0.00000000000000             1
    0.33333333333333    0.00000000000000    0.00000000000000             1
    0.50000000000000    0.00000000000000    0.00000000000000             1
   -0.33333333333333    0.00000000000000    0.00000000000000             1
   -0.16666666666667    0.00000000000000    0.00000000000000             1
    0.00000000000000    0.16666666666667    0.00000000000000             1
    0.16666666666667    0.16666666666667    0.00000000000000             1
    0.33333333333333    0.16666666666667    0.00000000000000             1
    0.50000000000000    0.16666666666667    0.00000000000000             1
   -0.33333333333333    0.16666666666667    0.00000000000000             1
   -0.16666666666667    0.16666666666667    0.00000000000000             1
    0.00000000000000    0.33333333333333    0.00000000000000             1
    0.16666666666667    0.33333333333333    0.00000000000000             1
    0.33333333333333    0.33333333333333    0.00000000000000             1
    0.50000000000000    0.33333333333333    0.00000000000000             1
   -0.33333333333333    0.33333333333333    0.00000000000000             1
   -0.16666666666667    0.33333333333333    0.00000000000000             1
    0.00000000000000    0.50000000000000    0.00000000000000             1
    0.16666666666667    0.50000000000000    0.00000000000000             1
    0.33333333333333    0.50000000000000    0.00000000000000             1
    0.50000000000000    0.50000000000000    0.00000000000000             1
   -0.33333333333333    0.50000000000000    0.00000000000000             1
   -0.16666666666667    0.50000000000000    0.00000000000000             1
    0.00000000000000   -0.33333333333333    0.00000000000000             1
    0.16666666666667   -0.33333333333333    0.00000000000000             1
    0.33333333333333   -0.33333333333333    0.00000000000000             1
    0.50000000000000   -0.33333333333333    0.00000000000000             1
   -0.33333333333333   -0.33333333333333    0.00000000000000             1
   -0.16666666666667   -0.33333333333333    0.00000000000000             1
    0.00000000000000   -0.16666666666667    0.00000000000000             1
    0.16666666666667   -0.16666666666667    0.00000000000000             1
    0.33333333333333   -0.16666666666667    0.00000000000000             1
    0.50000000000000   -0.16666666666667    0.00000000000000             1
   -0.33333333333333   -0.16666666666667    0.00000000000000             1
   -0.16666666666667   -0.16666666666667    0.00000000000000             1
    0.00000000000000    0.00000000000000    0.16666666666667             1
    0.16666666666667    0.00000000000000    0.16666666666667             1
    0.33333333333333    0.00000000000000    0.16666666666667             1
    0.50000000000000    0.00000000000000    0.16666666666667             1
   -0.33333333333333    0.00000000000000    0.16666666666667             1
   -0.16666666666667    0.00000000000000    0.16666666666667             1
    0.00000000000000    0.16666666666667    0.16666666666667             1
    0.16666666666667    0.16666666666667    0.16666666666667             1
    0.33333333333333    0.16666666666667    0.16666666666667             1
    0.50000000000000    0.16666666666667    0.16666666666667             1
   -0.33333333333333    0.16666666666667    0.16666666666667             1
   -0.16666666666667    0.16666666666667    0.16666666666667             1
    0.00000000000000    0.33333333333333    0.16666666666667             1
    0.16666666666667    0.33333333333333    0.16666666666667             1
    0.33333333333333    0.33333333333333    0.16666666666667             1
    0.50000000000000    0.33333333333333    0.16666666666667             1
   -0.33333333333333    0.33333333333333    0.16666666666667             1
   -0.16666666666667    0.33333333333333    0.16666666666667             1
    0.00000000000000    0.50000000000000    0.16666666666667             1
    0.16666666666667    0.50000000000000    0.16666666666667             1
    0.33333333333333    0.50000000000000    0.16666666666667             1
    0.50000000000000    0.50000000000000    0.16666666666667             1
   -0.33333333333333    0.50000000000000    0.16666666666667             1
   -0.16666666666667    0.50000000000000    0.16666666666667             1
    0.00000000000000   -0.33333333333333    0.16666666666667             1
    0.16666666666667   -0.33333333333333    0.16666666666667             1
    0.33333333333333   -0.33333333333333    0.16666666666667             1
    0.50000000000000   -0.33333333333333    0.16666666666667             1
   -0.33333333333333   -0.33333333333333    0.16666666666667             1
   -0.16666666666667   -0.33333333333333    0.16666666666667             1
    0.00000000000000   -0.16666666666667    0.16666666666667             1
    0.16666666666667   -0.16666666666667    0.16666666666667             1
    0.33333333333333   -0.16666666666667    0.16666666666667             1
    0.50000000000000   -0.16666666666667    0.16666666666667             1
   -0.33333333333333   -0.16666666666667    0.16666666666667             1
   -0.16666666666667   -0.16666666666667    0.16666666666667             1
    0.00000000000000    0.00000000000000    0.33333333333333             1
    0.16666666666667    0.00000000000000    0.33333333333333             1
    0.33333333333333    0.00000000000000    0.33333333333333             1
    0.50000000000000    0.00000000000000    0.33333333333333             1
   -0.33333333333333    0.00000000000000    0.33333333333333             1
   -0.16666666666667    0.00000000000000    0.33333333333333             1
    0.00000000000000    0.16666666666667    0.33333333333333             1
    0.16666666666667    0.16666666666667    0.33333333333333             1
    0.33333333333333    0.16666666666667    0.33333333333333             1
    0.50000000000000    0.16666666666667    0.33333333333333             1
   -0.33333333333333    0.16666666666667    0.33333333333333             1
   -0.16666666666667    0.16666666666667    0.33333333333333             1
    0.00000000000000    0.33333333333333    0.33333333333333             1
    0.16666666666667    0.33333333333333    0.33333333333333             1
    0.33333333333333    0.33333333333333    0.33333333333333             1
    0.50000000000000    0.33333333333333    0.33333333333333             1
   -0.33333333333333    0.33333333333333    0.33333333333333             1
   -0.16666666666667    0.33333333333333    0.33333333333333             1
    0.00000000000000    0.50000000000000    0.33333333333333             1
    0.16666666666667    0.50000000000000    0.33333333333333             1
    0.33333333333333    0.50000000000000    0.33333333333333             1
    0.50000000000000    0.50000000000000    0.33333333333333             1
   -0.33333333333333    0.50000000000000    0.33333333333333             1
   -0.16666666666667    0.50000000000000    0.33333333333333             1
    0.00000000000000   -0.33333333333333    0.33333333333333             1
    0.16666666666667   -0.33333333333333    0.33333333333333             1
    0.33333333333333   -0.33333333333333    0.33333333333333             1
    0.50000000000000   -0.33333333333333    0.33333333333333             1
   -0.33333333333333   -0.33333333333333    0.33333333333333             1
   -0.16666666666667   -0.33333333333333    0.33333333333333             1
    0.00000000000000   -0.16666666666667    0.33333333333333             1
    0.16666666666667   -0.16666666666667    0.33333333333333             1
    0.33333333333333   -0.16666666666667    0.33333333333333             1
    0.50000000000000   -0.16666666666667    0.33333333333333             1
   -0.33333333333333   -0.16666666666667    0.33333333333333             1
   -0.16666666666667   -0.16666666666667    0.33333333333333             1
    0.00000000000000    0.00000000000000    0.50000000000000             1
    0.16666666666667    0.00000000000000    0.50000000000000             1
    0.33333333333333    0.00000000000000    0.50000000000000             1
    0.50000000000000    0.00000000000000    0.50000000000000             1
   -0.33333333333333    0.00000000000000    0.50000000000000             1
   -0.16666666666667    0.00000000000000    0.50000000000000             1
    0.00000000000000    0.16666666666667    0.50000000000000             1
    0.16666666666667    0.16666666666667    0.50000000000000             1
    0.33333333333333    0.16666666666667    0.50000000000000             1
    0.50000000000000    0.16666666666667    0.50000000000000             1
   -0.33333333333333    0.16666666666667    0.50000000000000             1
   -0.16666666666667    0.16666666666667    0.50000000000000             1
    0.00000000000000    0.33333333333333    0.50000000000000             1
    0.16666666666667    0.33333333333333    0.50000000000000             1
    0.33333333333333    0.33333333333333    0.50000000000000             1
    0.50000000000000    0.33333333333333    0.50000000000000             1
   -0.33333333333333    0.33333333333333    0.50000000000000             1
   -0.16666666666667    0.33333333333333    0.50000000000000             1
    0.00000000000000    0.50000000000000    0.50000000000000             1
    0.16666666666667    0.50000000000000    0.50000000000000             1
    0.33333333333333    0.50000000000000    0.50000000000000             1
    0.50000000000000    0.50000000000000    0.50000000000000             1
   -0.33333333333333    0.50000000000000    0.50000000000000             1
   -0.16666666666667    0.50000000000000    0.50000000000000             1
    0.00000000000000   -0.33333333333333    0.50000000000000             1
    0.16666666666667   -0.33333333333333    0.50000000000000             1
    0.33333333333333   -0.33333333333333    0.50000000000000             1
    0.50000000000000   -0.33333333333333    0.50000000000000             1
   -0.33333333333333   -0.33333333333333    0.50000000000000             1
   -0.16666666666667   -0.33333333333333    0.50000000000000             1
    0.00000000000000   -0.16666666666667    0.50000000000000             1
    0.16666666666667   -0.16666666666667    0.50000000000000             1
    0.33333333333333   -0.16666666666667    0.50000000000000             1
    0.50000000000000   -0.16666666666667    0.50000000000000             1
   -0.33333333333333   -0.16666666666667    0.50000000000000             1
   -0.16666666666667   -0.16666666666667    0.50000000000000             1
    0.00000000000000    0.00000000000000   -0.33333333333333             1
    0.16666666666667    0.00000000000000   -0.33333333333333             1
    0.33333333333333    0.00000000000000   -0.33333333333333             1
    0.50000000000000    0.00000000000000   -0.33333333333333             1
   -0.33333333333333    0.00000000000000   -0.33333333333333             1
   -0.16666666666667    0.00000000000000   -0.33333333333333             1
    0.00000000000000    0.16666666666667   -0.33333333333333             1
    0.16666666666667    0.16666666666667   -0.33333333333333             1
    0.33333333333333    0.16666666666667   -0.33333333333333             1
    0.50000000000000    0.16666666666667   -0.33333333333333             1
   -0.33333333333333    0.16666666666667   -0.33333333333333             1
   -0.16666666666667    0.16666666666667   -0.33333333333333             1
    0.00000000000000    0.33333333333333   -0.33333333333333             1
    0.16666666666667    0.33333333333333   -0.33333333333333             1
    0.33333333333333    0.33333333333333   -0.33333333333333             1
    0.50000000000000    0.33333333333333   -0.33333333333333             1
   -0.33333333333333    0.33333333333333   -0.33333333333333             1
   -0.16666666666667    0.33333333333333   -0.33333333333333             1
    0.00000000000000    0.50000000000000   -0.33333333333333             1
    0.16666666666667    0.50000000000000   -0.33333333333333             1
    0.33333333333333    0.50000000000000   -0.33333333333333             1
    0.50000000000000    0.50000000000000   -0.33333333333333             1
   -0.33333333333333    0.50000000000000   -0.33333333333333             1
   -0.16666666666667    0.50000000000000   -0.33333333333333             1
    0.00000000000000   -0.33333333333333   -0.33333333333333             1
    0.16666666666667   -0.33333333333333   -0.33333333333333             1
    0.33333333333333   -0.33333333333333   -0.33333333333333             1
    0.50000000000000   -0.33333333333333   -0.33333333333333             1
   -0.33333333333333   -0.33333333333333   -0.33333333333333             1
   -0.16666666666667   -0.33333333333333   -0.33333333333333             1
    0.00000000000000   -0.16666666666667   -0.33333333333333             1
    0.16666666666667   -0.16666666666667   -0.33333333333333             1
    0.33333333333333   -0.16666666666667   -0.33333333333333             1
    0.50000000000000   -0.16666666666667   -0.33333333333333             1
   -0.33333333333333   -0.16666666666667   -0.33333333333333             1
   -0.16666666666667   -0.16666666666667   -0.33333333333333             1
    0.00000000000000    0.00000000000000   -0.16666666666667             1
    0.16666666666667    0.00000000000000   -0.16666666666667             1
    0.33333333333333    0.00000000000000   -0.16666666666667             1
    0.50000000000000    0.00000000000000   -0.16666666666667             1
   -0.33333333333333    0.00000000000000   -0.16666666666667             1
   -0.16666666666667    0.00000000000000   -0.16666666666667             1
    0.00000000000000    0.16666666666667   -0.16666666666667             1
    0.16666666666667    0.16666666666667   -0.16666666666667             1
    0.33333333333333    0.16666666666667   -0.16666666666667             1
    0.50000000000000    0.16666666666667   -0.16666666666667             1
   -0.33333333333333    0.16666666666667   -0.16666666666667             1
   -0.16666666666667    0.16666666666667   -0.16666666666667             1
    0.00000000000000    0.33333333333333   -0.16666666666667             1
    0.16666666666667    0.33333333333333   -0.16666666666667             1
    0.33333333333333    0.33333333333333   -0.16666666666667             1
    0.50000000000000    0.33333333333333   -0.16666666666667             1
   -0.33333333333333    0.33333333333333   -0.16666666666667             1
   -0.16666666666667    0.33333333333333   -0.16666666666667             1
    0.00000000000000    0.50000000000000   -0.16666666666667             1
    0.16666666666667    0.50000000000000   -0.16666666666667             1
    0.33333333333333    0.50000000000000   -0.16666666666667             1
    0.50000000000000    0.50000000000000   -0.16666666666667             1
   -0.33333333333333    0.50000000000000   -0.16666666666667             1
   -0.16666666666667    0.50000000000000   -0.16666666666667             1
    0.00000000000000   -0.33333333333333   -0.16666666666667             1
    0.16666666666667   -0.33333333333333   -0.16666666666667             1
    0.33333333333333   -0.33333333333333   -0.16666666666667             1
    0.50000000000000   -0.33333333333333   -0.16666666666667             1
   -0.33333333333333   -0.33333333333333   -0.16666666666667             1
   -0.16666666666667   -0.33333333333333   -0.16666666666667             1
    0.00000000000000   -0.16666666666667   -0.16666666666667             1
    0.16666666666667   -0.16666666666667   -0.16666666666667             1
    0.33333333333333   -0.16666666666667   -0.16666666666667             1
    0.50000000000000   -0.16666666666667   -0.16666666666667             1
   -0.33333333333333   -0.16666666666667   -0.16666666666667             1
   -0.16666666666667   -0.16666666666667   -0.16666666666667             1
Tetrahedra
      1296    0.00077160493827
         1         1         7         8        44
         1         1         2         8        44
         1         1         2        38        44
         1         1         7        43        44
         1         1        37        43        44
         1         1        37        38        44
         1         2         8         9        45
         1         2         3         9        45
         1         2         3        39        45
         1         2         8        44        45
         1         2        38        44        45
         1         2        38        39        45
         1         3         9        10        46
         1         3         4        10        46
         1         3         4        40        46
         1         3         9        45        46
         1         3        39        45        46
         1         3        39        40        46
         1         4        10        11        47
         1         4         5        11        47
         1         4         5        41        47
         1         4        10        46        47
         1         4        40        46        47
         1         4        40        41        47
         1         5        11        12        48
         1         5         6        12        48
         1         5         6        42        48
         1         5        11        47        48
         1         5        41        47        48
         1         5        41        42        48
         1         6         7        12        43
         1         1         6         7        43
         1         1         6        37        43
         1         6        12        43        48
         1         6        42        43        48
         1         6        37        42        43
         1         7        13        14        50
         1         7         8        14        50
         1         7         8        44        50
         1         7        13        49        50
         1         7        43        49        50
         1         7        43        44        50
         1         8        14        15        51
         1         8         9        15        51
         1         8         9        45        51
         1         8        14        50        51
         1         8        44        50        51
         1         8        44        45        51
         1         9        15        16        52
         1         9        10        16        52
         1         9        10        46        52
         1         9        15        51        52
         1         9        45        51        52
         1         9        45        46        52
         1        10        16        17        53
         1        10        11        17        53
         1        10        11        47        53
         1        10        16        52        53
         1        10        46        52        53
         1        10        46        47        53
         1        11        17        18        54
         1        11        12        18        54
         1        11        12        48        54
         1        11        17        53        54
         1        11        47        53        54
         1        11        47        48        54
         1        12        13        18        49
         1         7        12        13        49
         1         7        12        43        49
         1        12        18        49        54
         1        12        48        49        54
         1        12        43        48        49
         1        13        19        20        56
         1        13        14        20        56
         1        13        14        50        56
         1        13        19        55        56
         1        13        49        55        56
         1        13        49        50        56
         1        14        20        21        57
         1        14        15        21        57
         1        14        15        51        57
         1        14        20        56        57
         1        14        50        56        57
         1        14        50        51        57
         1        15        21        22        58
         1        15        16        22        58
         1        15        16        52        58
         1        15        21        57        58
         1        15        51        57        58
         1        15        51        52        58
         1        16        22        23        59
         1        16        17        23        59
         1        16        17        53        59
         1        16        22        58        59
         1        16        52        58        59
         1        16        52        53        59
         1        17        23        24        60
         1        17        18        24        60
         1        17        18        54        60
         1        17        23        59        60
         1        17        53        59        60
         1        17        53        54        60
         1        18        19        24        55
         1        13        18        19        55
         1        13        18        49        55
         1        18        24        55        60
         1        18        54        55        60
         1        18        49        54        55
         1        19        25        26        62
         1        19        20        26        62
         1        19        20        56        62
         1        19        25        61        62
         1        19        55        61        62
         1        19        55        56        62
         1        20        26        27        63
         1        20        21        27        63
         1        20        21        57        63
         1        20        26        62        63
         1        20        56        62        63
         1        20        56        57        63
         1        21        27        28        64
         1        21        22        28        64
         1        21        22        58        64
         1        21        27        63        64
         1        21        57        63        64
         1        21        57        58        64
         1        22        28        29        65
         1        22        23        29        65
         1        22        23        59        65
         1        22        28        64        65
         1        22        58        64        65
         1        22        58        59        65
         1        23        29        30        66
         1        23        24        30        66
         1        23        24        60        66
         1        23        29        65        66
         1        23        59        65        66
         1        23        59        60        66
         1        24        25        30        61
         1        19        24        25        61
         1        19        24        55        61
         1        24        30        61        66
         1        24        60        61        66
         1        24        55        60        61
         1        25        31        32        68
         1        25        26        32        68
         1        25        26        62        68
         1        25        31        67        68
         1        25        61        67        68
         1        25        61        62        68
         1        26        32        33        69
         1        26        27        33        69
         1        26        27        63        69
         1        26        32        68        69
         1        26        62        68        69
         1        26        62        63        69
         1        27        33        34        70
         1        27        28        34        70
         1        27        28        64        70
         1        27        33        69        70
         1        27        63        69        70
         1        27        63        64        70
         1        28        34        35        71
         1        28        29        35        71
         1        28        29        65        71
         1        28        34        70        71
         1        28        64        70        71
         1        28        64        65        71
         1        29        35        36        72
         1        29        30        36        72
         1        29        30        66        72
         1        29        35        71        72
         1        29        65        71        72
         1        29        65        66        72
         1        30        31        36        67
         1        25        30        31        67
         1        25        30        61        67
         1        30        36        67        72
         1        30        66        67        72
         1        30        61        66        67
         1         1         2        31        38
         1         2        31        32        38
         1        31        32        38        68
         1         1        31        37        38
         1        31        37        38        67
         1        31        38        67        68
         1         2         3        32        39
         1         3        32        33        39
         1        32        33        39        69
         1         2        32        38        39
         1        32        38        39        68
         1        32        39        68        69
         1         3         4        33        40
         1         4        33        34        40
         1        33        34        40        70
         1         3        33        39        40
         1        33        39        40        69
         1        33        40        69        70
         1         4         5        34        41
         1         5        34        35        41
         1        34        35        41        71
         1         4        34        40        41
         1        34        40        41        70
         1        34        41        70        71
         1         5         6        35        42
         1         6        35        36        42
         1        35        36        42        72
         1         5        35        41        42
         1        35        41        42        71
         1        35        42        71        72
         1         1         6        36        37
         1         1        31        36        37
         1        31        36        37        67
         1         6        36        37        42
         1        36        37        42        72
         1        36        37        67        72
         1        37        43        44        80
         1        37        38        44        80
         1        37        38        74        80
         1        37        43        79        80
         1        37        73        79        80
         1        37        73        74        80
         1        38        44        45        81
         1        38        39        45        81
         1        38        39        75        81
         1        38        44        80        81
         1        38        74        80        81
         1        38        74        75        81
         1        39        45        46        82
         1        39        40        46        82
         1        39        40        76        82
         1        39        45        81        82
         1        39        75        81        82
         1        39        75        76        82
         1        40        46        47        83
         1        40        41        47        83
         1        40        41        77        83
         1        40        46        82        83
         1        40        76        82        83
         1        40        76        77        83
         1        41        47        48        84
         1        41        42        48        84
         1        41        42        78        84
         1        41        47        83        84
         1        41        77        83        84
         1        41        77        78        84
         1        42        43        48        79
         1        37        42        43        79
         1        37        42        73        79
         1        42        48        79        84
         1        42        78        79        84
         1        42        73        78        79
         1        43        49        50        86
         1        43        44        50        86
         1        43        44        80        86
         1        43        49        85        86
         1        43        79        85        86
         1        43        79        80        86
         1        44        50        51        87
         1        44        45        51        87
         1        44        45        81        87
         1        44        50        86        87
         1        44        80        86        87
         1        44        80        81        87
         1        45        51        52        88
         1        45        46        52        88
         1        45        46        82        88
         1        45        51        87        88