Automatically generated mesh
      27
Reciprocal lattice
    0.00000000000000    0.00000000000000    0.00000000000000             1
    0.33333333333333    0.00000000000000    0.00000000000000             1
   -0.33333333333333    0.00000000000000    0.00000000000000             1
    0.00000000000000    0.33333333333333    0.00000000000000             1
    0.33333333333333    0.33333333333333    0.00000000000000             1
   -0.33333333333333    0.33333333333333    0.00000000000000             1
    0.00000000000000   -0.33333333333333    0.00000000000000             1
    0.33333333333333   -0.33333333333333    0.00000000000000             1
   -0.33333333333333   -0.33333333333333    0.00000000000000             1
    0.00000000000000    0.00000000000000    0.33333333333333             1
    0.33333333333333    0.00000000000000    0.33333333333333             1
   -0.33333333333333    0.00000000000000    0.33333333333333             1
    0.00000000000000    0.33333333333333    0.33333333333333             1
    0.33333333333333    0.33333333333333    0.33333333333333             1
   -0.33333333333333    0.33333333333333    0.33333333333333             1
    0.00000000000000   -0.33333333333333    0.33333333333333             1
    0.33333333333333   -0.33333333333333    0.33333333333333             1
   -0.33333333333333   -0.33333333333333    0.33333333333333             1
    0.00000000000000    0.00000000000000   -0.33333333333333             1
    0.33333333333333    0.00000000000000   -0.33333333333333             1
   -0.33333333333333    0.00000000000000   -0.33333333333333             1
    0.00000000000000    0.33333333333333   -0.33333333333333             1
    0.33333333333333    0.33333333333333   -0.33333333333333             1
   -0.33333333333333    0.33333333333333   -0.33333333333333             1
    0.00000000000000   -0.33333333333333   -0.33333333333333             1
    0.33333333333333   -0.33333333333333   -0.33333333333333             1
   -0.33333333333333   -0.33333333333333   -0.33333333333333             1
Tetrahedra
       162    0.00617283950617
         1         1         2         5        10
         1         1         4         5        10
         1         4         5        10        13
         1         2         5        10        11
         1         5        10        11        14
         1         5        10        13        14
         1         2         3         6        11
         1         2         5         6        11
         1         5         6        11        14
         1         3         6        11        12
         1         6        11        12        15
         1         6        11        14        15
         1         1         3         4        12
         1         3         4         6        12
         1         4         6        12        15
         1         1         4        10        12
         1         4        10        12        13
         1         4        12        13        15
         1         4         5         8        13
         1         4         7         8        13
         1         7         8        13        16
         1         5         8        13        14
         1         8        13        14        17
         1         8        13        16        17
         1         5         6         9        14
         1         5         8         9        14
         1         8         9        14        17
         1         6         9        14        15
         1         9        14        15        18
         1         9        14        17        18
         1         4         6         7        15
         1         6         7         9        15
         1         7         9        15        18
         1         4         7        13        15
         1         7        13        15        16
         1         7        15        16        18
         1         2         7         8        16
         1         1         2         7        16
         1         1         2        10        16
         1         2         8        16        17
         1         2        11        16        17
         1         2        10        11        16
         1         3         8         9        17
         1         2         3         8        17
         1         2         3        11        17
         1         3         9        17        18
         1         3        12        17        18
         1         3        11        12        17
         1         1         7         9        18
         1         1         3         9        18
         1         1         3        12        18
         1         1         7        16        18
         1         1        10        16        18
         1         1        10        12        18
         1        10        11        14        19
         1        10        13        14        19
         1        13        14        19        22
         1        11        14        19        20
         1        14        19        20        23
         1        14        19        22        23
         1        11        12        15        20
         1        11        14        15        20
         1        14        15        20        23
         1        12        15        20        21
         1        15        20        21        24
         1        15        20        23        24
         1        10        12        13        21
         1        12        13        15        21
         1        13        15        21        24
         1        10        13        19        21
         1        13        19        21        22
         1        13        21        22        24
         1        13        14        17        22
         1        13        16        17        22
         1        16        17        22        25
         1        14        17        22        23
         1        17        22        23        26
         1        17        22        25        26
         1        14        15        18        23
         1        14        17        18        23
         1        17        18        23        26
         1        15        18        23        24
         1        18        23        24        27
         1        18        23        26        27
         1        13        15        16        24
         1        15        16        18        24
         1        16        18        24        27
         1        13        16        22        24
         1        16        22        24        25
         1        16        24        25        27
         1        11        16        17        25
         1        10        11        16        25
         1        10        11        19        25
         1        11        17        25        26
         1        11        20        25        26
         1        11        19        20        25
         1        12        17        18        26
         1        11        12        17        26
         1        11        12        20        26
         1        12        18        26        27
         1        12        21        26        27
         1        12        20        21        26
         1        10        16        18        27
         1        10        12        18        27
         1        10        12        21        27
         1        10        16        25        27
         1        10        19        25        27
         1        10        19        21        27
         1         1        19        20        23
         1         1        19        22        23
         1         1         4        22        23
         1         1         2        20        23
         1         1         2         5        23
         1         1         4         5        23
         1         2        20        21        24
         1         2        20        23        24
         1         2         5        23        24
         1         2         3        21        24
         1         2         3         6        24
         1         2         5         6        24
         1         3        19        21        22
         1         3        21        22        24
         1         3         6        22        24
         1         1         3        19        22
         1         1         3         4        22
         1         3         4         6        22
         1         4        22        23        26
         1         4        22        25        26
         1         4         7        25        26
         1         4         5        23        26
         1         4         5         8        26
         1         4         7         8        26
         1         5        23        24        27
         1         5        23        26        27
         1         5         8        26        27
         1         5         6        24        27
         1         5         6         9        27
         1         5         8         9        27
         1         6        22        24        25
         1         6        24        25        27
         1         6         9        25        27
         1         4         6        22        25
         1         4         6         7        25
         1         6         7         9        25
         1         7        20        25        26
         1         7        19        20        25
         1         1         7        19        20
         1         7         8        20        26
         1         2         7         8        20
         1         1         2         7        20
         1         8        21        26        27
         1         8        20        21        26
         1         2         8        20        21
         1         8         9        21        27
         1         3         8         9        21
         1         2         3         8        21
         1         9        19        25        27
         1         9        19        21        27
         1         3         9        19        21
         1         7         9        19        25
         1         1         7         9        19
         1         1         3         9        19
