    2    2    1    1
  0.1333597E+02  0.2987800E-09  0.2987800E-09  0.2987800E-09  0.4000000E-15
  1.000000000000000E-004
  CAR 
 unknown system                          
     22      8     32
 
  0.0000000E+00  0.0000000E+00  0.0000000E+00  0.1250000E+00
    1      -31.124880   1.000000
    2      -31.124874   1.000000
    3      -31.124874   1.000000
    4      -30.472930   1.000000
    5      -30.472924   1.000000
    6      -30.472924   1.000000
    7       -0.656307   1.000000
    8        3.114522   1.000000
    9        3.114528   1.000000
   10        6.756072   1.000000
   11        6.756072   1.000000
   12        6.756072   1.000000
   13        8.830522   0.000000
   14        8.830531   0.000000
   15       10.218787   0.000000
   16       10.218787   0.000000
   17       10.218787   0.000000
   18       16.385699   0.000000
   19       16.385700   0.000000
   20       16.385700   0.000000
   21       23.245995   0.000000
   22       23.246000   0.000000
   23       27.038149   0.000000
   24       27.038150   0.000000
   25       27.038150   0.000000
   26       28.124413   0.000000
   27       33.563563   0.000000
   28       33.563565   0.000000
   29       37.108602   0.000000
   30       37.108873   0.000000
   31       37.746833   0.000000
   32       37.746834   0.000000
 
  0.5000000E+00  0.0000000E+00  0.0000000E+00  0.1250000E+00
    1      -30.987454   1.000000
    2      -30.987388   1.000000
    3      -30.789046   1.000000
    4      -30.789034   1.000000
    5      -30.788977   1.000000
    6      -30.788976   1.000000
    7        3.111139   1.000000
    8        3.111157   1.000000
    9        5.662773   1.000000
   10        5.662787   1.000000
   11        7.182630   0.335141
   12        7.182634   0.334747
   13        7.182662   0.331934
   14        7.182666   0.331528
   15        8.381678   0.000000
   16        8.381711   0.000000
   17       10.018597   0.000000
   18       10.018623   0.000000
   19       23.630028   0.000000
   20       23.630171   0.000000
   21       23.955319   0.000000
   22       23.955321   0.000000
   23       23.955382   0.000000
   24       23.955382   0.000000
   25       24.866018   0.000000
   26       24.866056   0.000000
   27       37.108331   0.000000
   28       37.108412   0.000000
   29       37.172288   0.000000
   30       37.172292   0.000000
   31       37.172407   0.000000
   32       37.172413   0.000000
 
  0.0000000E+00  0.5000000E+00  0.0000000E+00  0.1250000E+00
    1      -30.987448   1.000000
    2      -30.987392   1.000000
    3      -30.789046   1.000000
    4      -30.789039   1.000000
    5      -30.788977   1.000000
    6      -30.788972   1.000000
    7        3.111143   1.000000
    8        3.111153   1.000000
    9        5.662777   1.000000
   10        5.662782   1.000000
   11        7.182634   0.334722
   12        7.182634   0.334683
   13        7.182661   0.331997
   14        7.182662   0.331934
   15        8.381675   0.000000
   16        8.381715   0.000000
   17       10.018600   0.000000
   18       10.018620   0.000000
   19       23.630026   0.000000
   20       23.630173   0.000000
   21       23.955324   0.000000
   22       23.955325   0.000000
   23       23.955377   0.000000
   24       23.955378   0.000000
   25       24.866023   0.000000
   26       24.866052   0.000000
   27       37.108331   0.000000
   28       37.108412   0.000000
   29       37.172291   0.000000
   30       37.172292   0.000000
   31       37.172407   0.000000
   32       37.172409   0.000000
 
  0.5000000E+00  0.5000000E+00  0.0000000E+00  0.1250000E+00
    1      -31.432994   1.000000
    2      -31.432989   1.000000
    3      -30.770785   1.000000
    4      -30.770716   1.000000
    5      -30.481186   1.000000
    6      -30.481182   1.000000
    7        2.921354   1.000000
    8        2.921370   1.000000
    9        5.127236   1.000000
   10        5.127241   1.000000
   11        7.662589   0.000000
   12        7.662596   0.000000
   13        8.844138   0.000000
   14        8.844140   0.000000
   15        9.229178   0.000000
   16        9.229202   0.000000
   17       10.631838   0.000000
   18       10.631842   0.000000
   19       16.556229   0.000000
   20       16.556267   0.000000
   21       22.179203   0.000000
   22       22.179209   0.000000
   23       26.193084   0.000000
   24       26.193195   0.000000
   25       29.429253   0.000000
   26       29.429260   0.000000
   27       32.939278   0.000000
   28       32.939297   0.000000
   29       36.050794   0.000000
   30       36.050795   0.000000
   31       37.108582   0.000000
   32       37.108662   0.000000
 
  0.0000000E+00  0.0000000E+00  0.5000000E+00  0.1250000E+00
    1      -30.987460   1.000000
    2      -30.987393   1.000000
    3      -30.789039   1.000000
    4      -30.789034   1.000000
    5      -30.788976   1.000000
    6      -30.788972   1.000000
    7        3.111137   1.000000
    8        3.111156   1.000000
    9        5.662778   1.000000
   10        5.662792   1.000000
   11        7.182630   0.335147
   12        7.182633   0.334792
   13        7.182663   0.331859
   14        7.182666   0.331515
   15        8.381679   0.000000
   16        8.381711   0.000000
   17       10.018591   0.000000
   18       10.018618   0.000000
   19       23.630031   0.000000
   20       23.630174   0.000000
   21       23.955319   0.000000
   22       23.955320   0.000000
   23       23.955383   0.000000
   24       23.955384   0.000000
   25       24.866015   0.000000
   26       24.866055   0.000000
   27       37.108331   0.000000
   28       37.108412   0.000000
   29       37.172287   0.000000
   30       37.172292   0.000000
   31       37.172408   0.000000
   32       37.172413   0.000000
 
  0.5000000E+00  0.0000000E+00  0.5000000E+00  0.1250000E+00
    1      -31.432995   1.000000
    2      -31.432995   1.000000
    3      -30.770773   1.000000
    4      -30.770715   1.000000
    5      -30.481188   1.000000
    6      -30.481187   1.000000
    7        2.921349   1.000000
    8        2.921378   1.000000
    9        5.127238   1.000000
   10        5.127239   1.000000
   11        7.662591   0.000000
   12        7.662592   0.000000
   13        8.844141   0.000000
   14        8.844147   0.000000
   15        9.229167   0.000000
   16        9.229200   0.000000
   17       10.631839   0.000000
   18       10.631840   0.000000
   19       16.556226   0.000000
   20       16.556272   0.000000
   21       22.179205   0.000000
   22       22.179206   0.000000
   23       26.193080   0.000000
   24       26.193202   0.000000
   25       29.429256   0.000000
   26       29.429258   0.000000
   27       32.939275   0.000000
   28       32.939300   0.000000
   29       36.050794   0.000000
   30       36.050794   0.000000
   31       37.108582   0.000000
   32       37.108662   0.000000
 
  0.0000000E+00  0.5000000E+00  0.5000000E+00  0.1250000E+00
    1      -31.432998   1.000000
    2      -31.432992   1.000000
    3      -30.770778   1.000000
    4      -30.770710   1.000000
    5      -30.481190   1.000000
    6      -30.481184   1.000000
    7        2.921355   1.000000
    8        2.921373   1.000000
    9        5.127236   1.000000
   10        5.127241   1.000000
   11        7.662588   0.000000
   12        7.662596   0.000000
   13        8.844143   0.000000
   14        8.844145   0.000000
   15        9.229171   0.000000
   16        9.229196   0.000000
   17       10.631837   0.000000
   18       10.631842   0.000000
   19       16.556230   0.000000
   20       16.556269   0.000000
   21       22.179202   0.000000
   22       22.179209   0.000000
   23       26.193085   0.000000
   24       26.193198   0.000000
   25       29.429253   0.000000
   26       29.429261   0.000000
   27       32.939278   0.000000
   28       32.939297   0.000000
   29       36.050794   0.000000
   30       36.050794   0.000000
   31       37.108582   0.000000
   32       37.108662   0.000000
 
  0.5000000E+00  0.5000000E+00  0.5000000E+00  0.1250000E+00
    1      -30.950165   1.000000
    2      -30.950158   1.000000
    3      -30.950153   1.000000
    4      -30.950097   1.000000
    5      -30.950096   1.000000
    6      -30.950092   1.000000
    7        5.070416   1.000000
    8        5.070421   1.000000
    9        5.070421   1.000000
   10        5.070433   1.000000
   11        5.070434   1.000000
   12        5.070439   1.000000
   13        9.298057   0.000000
   14        9.298071   0.000000
   15        9.298088   0.000000
   16        9.298096   0.000000
   17       16.720923   0.000000
   18       16.720930   0.000000
   19       16.720930   0.000000
   20       16.720956   0.000000
   21       16.720958   0.000000
   22       16.720964   0.000000
   23       18.168440   0.000000
   24       18.168558   0.000000
   25       37.109107   0.000000
   26       37.109188   0.000000
   27       39.605291   0.000000
   28       39.605295   0.000000
   29       39.605296   0.000000
   30       39.605347   0.000000
   31       39.605347   0.000000
   32       39.605351   0.000000
