   1   1   1  16
  0.3764401E+02  0.3761869E-09  0.3761869E-09  0.3761869E-09  0.5000000E-15
  1.000000000000000E-004
  CAR 
 Ce                                      
     14.00000000      0.00000000 3000      6.04528565      1.00000000
      0.000  0.0000E+00  0.8000E+01
      0.005  0.0000E+00  0.8000E+01
      0.009  0.0000E+00  0.8000E+01
      0.014  0.0000E+00  0.8000E+01
      0.019  0.0000E+00  0.8000E+01
      0.023  0.0000E+00  0.8000E+01
      0.028  0.0000E+00  0.8000E+01
      0.033  0.0000E+00  0.8000E+01
      0.037  0.0000E+00  0.8000E+01
      0.042  0.0000E+00  0.8000E+01
      0.047  0.0000E+00  0.8000E+01
      0.051  0.0000E+00  0.8000E+01
      0.056  0.0000E+00  0.8000E+01
      0.061  0.0000E+00  0.8000E+01
      0.065  0.0000E+00  0.8000E+01
      0.070  0.0000E+00  0.8000E+01
      0.075  0.0000E+00  0.8000E+01
      0.079  0.0000E+00  0.8000E+01
      0.084  0.0000E+00  0.8000E+01
      0.089  0.0000E+00  0.8000E+01
      0.093  0.0000E+00  0.8000E+01
      0.098  0.0000E+00  0.8000E+01
      0.103  0.0000E+00  0.8000E+01
      0.107  0.0000E+00  0.8000E+01
      0.112  0.0000E+00  0.8000E+01
      0.117  0.0000E+00  0.8000E+01
      0.121  0.0000E+00  0.8000E+01
      0.126  0.0000E+00  0.8000E+01
      0.131  0.0000E+00  0.8000E+01
      0.135  0.0000E+00  0.8000E+01
      0.140  0.0000E+00  0.8000E+01
      0.145  0.0000E+00  0.8000E+01
      0.149  0.0000E+00  0.8000E+01
      0.154  0.0000E+00  0.8000E+01
      0.159  0.0000E+00  0.8000E+01
      0.163  0.0000E+00  0.8000E+01
      0.168  0.0000E+00  0.8000E+01
      0.173  0.0000E+00  0.8000E+01
      0.177  0.0000E+00  0.8000E+01
      0.182  0.0000E+00  0.8000E+01
      0.187  0.0000E+00  0.8000E+01
      0.191  0.0000E+00  0.8000E+01
      0.196  0.0000E+00  0.8000E+01
      0.201  0.0000E+00  0.8000E+01
      0.205  0.0000E+00  0.8000E+01
      0.210  0.0000E+00  0.8000E+01
      0.215  0.0000E+00  0.8000E+01
      0.219  0.0000E+00  0.8000E+01
      0.224  0.0000E+00  0.8000E+01
      0.229  0.0000E+00  0.8000E+01
      0.233  0.0000E+00  0.8000E+01
      0.238  0.0000E+00  0.8000E+01
      0.243  0.0000E+00  0.8000E+01
      0.247  0.0000E+00  0.8000E+01
      0.252  0.0000E+00  0.8000E+01
      0.257  0.0000E+00  0.8000E+01
      0.261  0.0000E+00  0.8000E+01
      0.266  0.0000E+00  0.8000E+01
      0.271  0.0000E+00  0.8000E+01
      0.275  0.0000E+00  0.8000E+01
      0.280  0.0000E+00  0.8000E+01
      0.285  0.0000E+00  0.8000E+01
      0.289  0.0000E+00  0.8000E+01
      0.294  0.0000E+00  0.8000E+01
      0.299  0.0000E+00  0.8000E+01
      0.303  0.0000E+00  0.8000E+01
      0.308  0.0000E+00  0.8000E+01
      0.313  0.0000E+00  0.8000E+01
      0.317  0.0000E+00  0.8000E+01
      0.322  0.0000E+00  0.8000E+01
      0.327  0.0000E+00  0.8000E+01
      0.331  0.0000E+00  0.8000E+01
      0.336  0.0000E+00  0.8000E+01
      0.341  0.0000E+00  0.8000E+01
      0.345  0.0000E+00  0.8000E+01
      0.350  0.0000E+00  0.8000E+01
      0.355  0.0000E+00  0.8000E+01
      0.359  0.0000E+00  0.8000E+01
      0.364  0.0000E+00  0.8000E+01
      0.369  0.0000E+00  0.8000E+01
      0.373  0.0000E+00  0.8000E+01
      0.378  0.0000E+00  0.8000E+01
      0.383  0.0000E+00  0.8000E+01
      0.387  0.0000E+00  0.8000E+01
      0.392  0.0000E+00  0.8000E+01
      0.397  0.0000E+00  0.8000E+01
      0.401  0.0000E+00  0.8000E+01
      0.406  0.0000E+00  0.8000E+01
      0.411  0.0000E+00  0.8000E+01
      0.415  0.0000E+00  0.8000E+01
      0.420  0.0000E+00  0.8000E+01
      0.425  0.0000E+00  0.8000E+01
      0.429  0.0000E+00  0.8000E+01
      0.434  0.0000E+00  0.8000E+01
      0.439  0.0000E+00  0.8000E+01
      0.443  0.0000E+00  0.8000E+01
      0.448  0.0000E+00  0.8000E+01
      0.453  0.0000E+00  0.8000E+01
      0.457  0.0000E+00  0.8000E+01
      0.462  0.0000E+00  0.8000E+01
      0.467  0.0000E+00  0.8000E+01
      0.471  0.0000E+00  0.8000E+01
      0.476  0.0000E+00  0.8000E+01
      0.481  0.0000E+00  0.8000E+01
      0.485  0.0000E+00  0.8000E+01
      0.490  0.0000E+00  0.8000E+01
      0.495  0.0000E+00  0.8000E+01
      0.499  0.0000E+00  0.8000E+01
      0.504  0.0000E+00  0.8000E+01
      0.509  0.0000E+00  0.8000E+01
      0.514  0.0000E+00  0.8000E+01
      0.518  0.0000E+00  0.8000E+01
      0.523  0.0000E+00  0.8000E+01
      0.528  0.0000E+00  0.8000E+01
      0.532  0.0000E+00  0.8000E+01
      0.537  0.0000E+00  0.8000E+01
      0.542  0.0000E+00  0.8000E+01
      0.546  0.0000E+00  0.8000E+01
      0.551  0.0000E+00  0.8000E+01
      0.556  0.0000E+00  0.8000E+01
      0.560  0.0000E+00  0.8000E+01
      0.565  0.0000E+00  0.8000E+01
      0.570  0.0000E+00  0.8000E+01
      0.574  0.0000E+00  0.8000E+01
      0.579  0.0000E+00  0.8000E+01
      0.584  0.0000E+00  0.8000E+01
      0.588  0.0000E+00  0.8000E+01
      0.593  0.0000E+00  0.8000E+01
      0.598  0.0000E+00  0.8000E+01
      0.602  0.0000E+00  0.8000E+01
      0.607  0.0000E+00  0.8000E+01
      0.612  0.0000E+00  0.8000E+01
      0.616  0.0000E+00  0.8000E+01
      0.621  0.0000E+00  0.8000E+01
      0.626  0.0000E+00  0.8000E+01
      0.630  0.0000E+00  0.8000E+01
      0.635  0.0000E+00  0.8000E+01
      0.640  0.0000E+00  0.8000E+01
      0.644  0.0000E+00  0.8000E+01
      0.649  0.0000E+00  0.8000E+01
      0.654  0.0000E+00  0.8000E+01
      0.658  0.0000E+00  0.8000E+01
      0.663  0.0000E+00  0.8000E+01
      0.668  0.0000E+00  0.8000E+01
      0.672  0.0000E+00  0.8000E+01
      0.677  0.0000E+00  0.8000E+01
      0.682  0.0000E+00  0.8000E+01
      0.686  0.0000E+00  0.8000E+01
      0.691  0.0000E+00  0.8000E+01
      0.696  0.0000E+00  0.8000E+01
      0.700  0.0000E+00  0.8000E+01
      0.705  0.0000E+00  0.8000E+01
      0.710  0.0000E+00  0.8000E+01
      0.714  0.0000E+00  0.8000E+01
      0.719  0.0000E+00  0.8000E+01
      0.724  0.0000E+00  0.8000E+01
      0.728  0.0000E+00  0.8000E+01
      0.733  0.0000E+00  0.8000E+01
      0.738  0.0000E+00  0.8000E+01
      0.742  0.0000E+00  0.8000E+01
      0.747  0.0000E+00  0.8000E+01
      0.752  0.0000E+00  0.8000E+01
      0.756  0.0000E+00  0.8000E+01
      0.761  0.0000E+00  0.8000E+01
      0.766  0.0000E+00  0.8000E+01
      0.770  0.0000E+00  0.8000E+01
      0.775  0.0000E+00  0.8000E+01
      0.780  0.0000E+00  0.8000E+01
      0.784  0.0000E+00  0.8000E+01
      0.789  0.0000E+00  0.8000E+01
      0.794  0.0000E+00  0.8000E+01
      0.798  0.0000E+00  0.8000E+01
      0.803  0.0000E+00  0.8000E+01
      0.808  0.0000E+00  0.8000E+01
      0.812  0.0000E+00  0.8000E+01
      0.817  0.0000E+00  0.8000E+01
      0.822  0.0000E+00  0.8000E+01
      0.826  0.0000E+00  0.8000E+01
      0.831  0.0000E+00  0.8000E+01
      0.836  0.0000E+00  0.8000E+01
      0.840  0.0000E+00  0.8000E+01
      0.845  0.0000E+00  0.8000E+01
      0.850  0.0000E+00  0.8000E+01
      0.854  0.0000E+00  0.8000E+01
      0.859  0.0000E+00  0.8000E+01
      0.864  0.0000E+00  0.8000E+01
      0.868  0.0000E+00  0.8000E+01
      0.873  0.0000E+00  0.8000E+01
      0.878  0.0000E+00  0.8000E+01
      0.882  0.0000E+00  0.8000E+01
      0.887  0.0000E+00  0.8000E+01
      0.892  0.0000E+00  0.8000E+01
      0.896  0.0000E+00  0.8000E+01
      0.901  0.0000E+00  0.8000E+01
      0.906  0.0000E+00  0.8000E+01
      0.910  0.0000E+00  0.8000E+01
      0.915  0.0000E+00  0.8000E+01
      0.920  0.0000E+00  0.8000E+01
      0.924  0.0000E+00  0.8000E+01
      0.929  0.0000E+00  0.8000E+01
      0.934  0.0000E+00  0.8000E+01
      0.938  0.0000E+00  0.8000E+01
      0.943  0.0000E+00  0.8000E+01
      0.948  0.0000E+00  0.8000E+01
      0.952  0.0000E+00  0.8000E+01
      0.957  0.0000E+00  0.8000E+01
      0.962  0.0000E+00  0.8000E+01
      0.966  0.0000E+00  0.8000E+01
      0.971  0.0000E+00  0.8000E+01
      0.976  0.0000E+00  0.8000E+01
      0.980  0.0000E+00  0.8000E+01
      0.985  0.0000E+00  0.8000E+01
      0.990  0.0000E+00  0.8000E+01
      0.994  0.0000E+00  0.8000E+01
      0.999  0.0000E+00  0.8000E+01
      1.004  0.0000E+00  0.8000E+01
      1.008  0.0000E+00  0.8000E+01
      1.013  0.0000E+00  0.8000E+01
      1.018  0.0000E+00  0.8000E+01
      1.022  0.0000E+00  0.8000E+01
      1.027  0.0000E+00  0.8000E+01
      1.032  0.0000E+00  0.8000E+01
      1.036  0.0000E+00  0.8000E+01
      1.041  0.0000E+00  0.8000E+01
      1.046  0.0000E+00  0.8000E+01
      1.050  0.0000E+00  0.8000E+01
      1.055  0.0000E+00  0.8000E+01
      1.060  0.0000E+00  0.8000E+01
      1.064  0.0000E+00  0.8000E+01
      1.069  0.0000E+00  0.8000E+01
      1.074  0.0000E+00  0.8000E+01
      1.078  0.0000E+00  0.8000E+01
      1.083  0.0000E+00  0.8000E+01
      1.088  0.0000E+00  0.8000E+01
      1.092  0.0000E+00  0.8000E+01
      1.097  0.0000E+00  0.8000E+01
      1.102  0.0000E+00  0.8000E+01
      1.106  0.0000E+00  0.8000E+01
      1.111  0.0000E+00  0.8000E+01
      1.116  0.0000E+00  0.8000E+01
      1.120  0.0000E+00  0.8000E+01
      1.125  0.0000E+00  0.8000E+01
      1.130  0.0000E+00  0.8000E+01
      1.134  0.0000E+00  0.8000E+01
      1.139  0.0000E+00  0.8000E+01
      1.144  0.0000E+00  0.8000E+01
      1.148  0.0000E+00  0.8000E+01
      1.153  0.0000E+00  0.8000E+01
      1.158  0.0000E+00  0.8000E+01
      1.162  0.0000E+00  0.8000E+01
      1.167  0.0000E+00  0.8000E+01
      1.172  0.0000E+00  0.8000E+01
      1.176  0.0000E+00  0.8000E+01
      1.181  0.0000E+00  0.8000E+01
      1.186  0.0000E+00  0.8000E+01
      1.190  0.0000E+00  0.8000E+01
      1.195  0.0000E+00  0.8000E+01
      1.200  0.0000E+00  0.8000E+01
      1.204  0.0000E+00  0.8000E+01
      1.209  0.0000E+00  0.8000E+01
      1.214  0.0000E+00  0.8000E+01
      1.218  0.0000E+00  0.8000E+01
      1.223  0.0000E+00  0.8000E+01
      1.228  0.0000E+00  0.8000E+01
      1.232  0.0000E+00  0.8000E+01
      1.237  0.0000E+00  0.8000E+01
      1.242  0.0000E+00  0.8000E+01
      1.246  0.0000E+00  0.8000E+01
      1.251  0.0000E+00  0.8000E+01
      1.256  0.0000E+00  0.8000E+01
      1.260  0.0000E+00  0.8000E+01
      1.265  0.0000E+00  0.8000E+01
      1.270  0.0000E+00  0.8000E+01
      1.274  0.0000E+00  0.8000E+01
      1.279  0.0000E+00  0.8000E+01
      1.284  0.0000E+00  0.8000E+01
      1.288  0.0000E+00  0.8000E+01
      1.293  0.0000E+00  0.8000E+01
      1.298  0.0000E+00  0.8000E+01
      1.302  0.0000E+00  0.8000E+01
      1.307  0.0000E+00  0.8000E+01
      1.312  0.0000E+00  0.8000E+01
      1.316  0.0000E+00  0.8000E+01
      1.321  0.0000E+00  0.8000E+01
      1.326  0.0000E+00  0.8000E+01
      1.330  0.0000E+00  0.8000E+01
      1.335  0.0000E+00  0.8000E+01
      1.340  0.0000E+00  0.8000E+01
      1.344  0.0000E+00  0.8000E+01
      1.349  0.0000E+00  0.8000E+01
      1.354  0.0000E+00  0.8000E+01
      1.358  0.0000E+00  0.8000E+01
      1.363  0.0000E+00  0.8000E+01
      1.368  0.0000E+00  0.8000E+01
      1.372  0.0000E+00  0.8000E+01
      1.377  0.0000E+00  0.8000E+01
      1.382  0.0000E+00  0.8000E+01
      1.386  0.0000E+00  0.8000E+01
      1.391  0.0000E+00  0.8000E+01
      1.396  0.0000E+00  0.8000E+01
      1.400  0.0000E+00  0.8000E+01
      1.405  0.0000E+00  0.8000E+01
      1.410  0.0000E+00  0.8000E+01
      1.414  0.0000E+00  0.8000E+01
      1.419  0.0000E+00  0.8000E+01
      1.424  0.0000E+00  0.8000E+01
      1.428  0.0000E+00  0.8000E+01
      1.433  0.0000E+00  0.8000E+01
      1.438  0.0000E+00  0.8000E+01
      1.442  0.0000E+00  0.8000E+01
      1.447  0.0000E+00  0.8000E+01
      1.452  0.0000E+00  0.8000E+01
      1.456  0.0000E+00  0.8000E+01
      1.461  0.0000E+00  0.8000E+01
      1.466  0.0000E+00  0.8000E+01
      1.470  0.0000E+00  0.8000E+01
      1.475  0.0000E+00  0.8000E+01
      1.480  0.0000E+00  0.8000E+01
      1.484  0.0000E+00  0.8000E+01
      1.489  0.0000E+00  0.8000E+01
      1.494  0.0000E+00  0.8000E+01
      1.498  0.0000E+00  0.8000E+01
      1.503  0.0000E+00  0.8000E+01
      1.508  0.0000E+00  0.8000E+01
      1.513  0.0000E+00  0.8000E+01
      1.517  0.0000E+00  0.8000E+01
      1.522  0.0000E+00  0.8000E+01
      1.527  0.0000E+00  0.8000E+01
      1.531  0.0000E+00  0.8000E+01
      1.536  0.0000E+00  0.8000E+01
      1.541  0.0000E+00  0.8000E+01
      1.545  0.0000E+00  0.8000E+01
      1.550  0.0000E+00  0.8000E+01
      1.555  0.0000E+00  0.8000E+01
      1.559  0.0000E+00  0.8000E+01
      1.564  0.0000E+00  0.8000E+01
      1.569  0.0000E+00  0.8000E+01
      1.573  0.0000E+00  0.8000E+01
      1.578  0.0000E+00  0.8000E+01
      1.583  0.0000E+00  0.8000E+01
      1.587  0.0000E+00  0.8000E+01
      1.592  0.0000E+00  0.8000E+01
      1.597  0.0000E+00  0.8000E+01
      1.601  0.0000E+00  0.8000E+01
      1.606  0.0000E+00  0.8000E+01
      1.611  0.0000E+00  0.8000E+01
      1.615  0.0000E+00  0.8000E+01
      1.620  0.0000E+00  0.8000E+01
      1.625  0.0000E+00  0.8000E+01
      1.629  0.0000E+00  0.8000E+01
      1.634  0.0000E+00  0.8000E+01
      1.639  0.0000E+00  0.8000E+01
      1.643  0.0000E+00  0.8000E+01
      1.648  0.0000E+00  0.8000E+01
      1.653  0.0000E+00  0.8000E+01
      1.657  0.0000E+00  0.8000E+01
      1.662  0.0000E+00  0.8000E+01
      1.667  0.0000E+00  0.8000E+01
      1.671  0.0000E+00  0.8000E+01
      1.676  0.0000E+00  0.8000E+01
      1.681  0.0000E+00  0.8000E+01
      1.685  0.0000E+00  0.8000E+01
      1.690  0.0000E+00  0.8000E+01
      1.695  0.0000E+00  0.8000E+01
      1.699  0.0000E+00  0.8000E+01
      1.704  0.0000E+00  0.8000E+01
      1.709  0.0000E+00  0.8000E+01
      1.713  0.0000E+00  0.8000E+01
      1.718  0.0000E+00  0.8000E+01
      1.723  0.0000E+00  0.8000E+01
      1.727  0.0000E+00  0.8000E+01
      1.732  0.0000E+00  0.8000E+01
      1.737  0.0000E+00  0.8000E+01
      1.741  0.0000E+00  0.8000E+01
      1.746  0.0000E+00  0.8000E+01
      1.751  0.0000E+00  0.8000E+01
      1.755  0.0000E+00  0.8000E+01
      1.760  0.0000E+00  0.8000E+01
      1.765  0.0000E+00  0.8000E+01
      1.769  0.0000E+00  0.8000E+01
      1.774  0.0000E+00  0.8000E+01
      1.779  0.0000E+00  0.8000E+01
      1.783  0.0000E+00  0.8000E+01
      1.788  0.0000E+00  0.8000E+01
      1.793  0.0000E+00  0.8000E+01
      1.797  0.0000E+00  0.8000E+01
      1.802  0.0000E+00  0.8000E+01
      1.807  0.0000E+00  0.8000E+01
      1.811  0.0000E+00  0.8000E+01
      1.816  0.0000E+00  0.8000E+01
      1.821  0.0000E+00  0.8000E+01
      1.825  0.0000E+00  0.8000E+01
      1.830  0.0000E+00  0.8000E+01
      1.835  0.0000E+00  0.8000E+01
      1.839  0.0000E+00  0.8000E+01
      1.844  0.0000E+00  0.8000E+01
      1.849  0.0000E+00  0.8000E+01
      1.853  0.0000E+00  0.8000E+01
      1.858  0.0000E+00  0.8000E+01
      1.863  0.0000E+00  0.8000E+01
      1.867  0.0000E+00  0.8000E+01
      1.872  0.0000E+00  0.8000E+01
      1.877  0.0000E+00  0.8000E+01
      1.881  0.0000E+00  0.8000E+01
      1.886  0.0000E+00  0.8000E+01
      1.891  0.0000E+00  0.8000E+01
      1.895  0.0000E+00  0.8000E+01
      1.900  0.0000E+00  0.8000E+01
      1.905  0.0000E+00  0.8000E+01
      1.909  0.0000E+00  0.8000E+01
      1.914  0.0000E+00  0.8000E+01
      1.919  0.0000E+00  0.8000E+01
      1.923  0.0000E+00  0.8000E+01
      1.928  0.0000E+00  0.8000E+01
      1.933  0.0000E+00  0.8000E+01
      1.937  0.0000E+00  0.8000E+01
      1.942  0.0000E+00  0.8000E+01
      1.947  0.0000E+00  0.8000E+01
      1.951  0.0000E+00  0.8000E+01
      1.956  0.0000E+00  0.8000E+01
      1.961  0.0000E+00  0.8000E+01
      1.965  0.0000E+00  0.8000E+01
      1.970  0.0000E+00  0.8000E+01
      1.975  0.0000E+00  0.8000E+01
      1.979  0.0000E+00  0.8000E+01
      1.984  0.0000E+00  0.8000E+01
      1.989  0.0000E+00  0.8000E+01
      1.993  0.0000E+00  0.8000E+01
      1.998  0.0000E+00  0.8000E+01
      2.003  0.0000E+00  0.8000E+01
      2.007  0.0000E+00  0.8000E+01
      2.012  0.0000E+00  0.8000E+01
      2.017  0.0000E+00  0.8000E+01
      2.021  0.0000E+00  0.8000E+01
      2.026  0.0000E+00  0.8000E+01
      2.031  0.0000E+00  0.8000E+01
      2.035  0.0000E+00  0.8000E+01
      2.040  0.0000E+00  0.8000E+01
      2.045  0.0000E+00  0.8000E+01
      2.049  0.0000E+00  0.8000E+01
      2.054  0.0000E+00  0.8000E+01
      2.059  0.0000E+00  0.8000E+01
      2.063  0.0000E+00  0.8000E+01
      2.068  0.0000E+00  0.8000E+01
      2.073  0.0000E+00  0.8000E+01
      2.077  0.0000E+00  0.8000E+01
      2.082  0.0000E+00  0.8000E+01
      2.087  0.0000E+00  0.8000E+01
      2.091  0.0000E+00  0.8000E+01
      2.096  0.0000E+00  0.8000E+01
      2.101  0.0000E+00  0.8000E+01
      2.105  0.0000E+00  0.8000E+01
      2.110  0.0000E+00  0.8000E+01
      2.115  0.0000E+00  0.8000E+01
      2.119  0.0000E+00  0.8000E+01
      2.124  0.0000E+00  0.8000E+01
      2.129  0.0000E+00  0.8000E+01
      2.133  0.0000E+00  0.8000E+01
      2.138  0.0000E+00  0.8000E+01
      2.143  0.0000E+00  0.8000E+01
      2.147  0.0000E+00  0.8000E+01
      2.152  0.0000E+00  0.8000E+01
      2.157  0.0000E+00  0.8000E+01
      2.161  0.0000E+00  0.8000E+01
      2.166  0.0000E+00  0.8000E+01
      2.171  0.0000E+00  0.8000E+01
      2.175  0.0000E+00  0.8000E+01
      2.180  0.0000E+00  0.8000E+01
      2.185  0.0000E+00  0.8000E+01
      2.189  0.0000E+00  0.8000E+01
      2.194  0.0000E+00  0.8000E+01
      2.199  0.0000E+00  0.8000E+01
      2.203  0.0000E+00  0.8000E+01
      2.208  0.0000E+00  0.8000E+01
      2.213  0.0000E+00  0.8000E+01
      2.217  0.0000E+00  0.8000E+01
      2.222  0.0000E+00  0.8000E+01
      2.227  0.0000E+00  0.8000E+01
      2.231  0.0000E+00  0.8000E+01
      2.236  0.0000E+00  0.8000E+01
      2.241  0.0000E+00  0.8000E+01
      2.245  0.0000E+00  0.8000E+01
      2.250  0.0000E+00  0.8000E+01
      2.255  0.0000E+00  0.8000E+01
      2.259  0.0000E+00  0.8000E+01
      2.264  0.0000E+00  0.8000E+01
      2.269  0.0000E+00  0.8000E+01
      2.273  0.0000E+00  0.8000E+01
      2.278  0.0000E+00  0.8000E+01
      2.283  0.0000E+00  0.8000E+01
      2.287  0.0000E+00  0.8000E+01
      2.292  0.0000E+00  0.8000E+01
      2.297  0.0000E+00  0.8000E+01
      2.301  0.0000E+00  0.8000E+01
      2.306  0.0000E+00  0.8000E+01
      2.311  0.0000E+00  0.8000E+01
      2.315  0.0000E+00  0.8000E+01
      2.320  0.0000E+00  0.8000E+01
      2.325  0.0000E+00  0.8000E+01
      2.329  0.0000E+00  0.8000E+01
      2.334  0.0000E+00  0.8000E+01
      2.339  0.0000E+00  0.8000E+01
      2.343  0.0000E+00  0.8000E+01
      2.348  0.0000E+00  0.8000E+01
      2.353  0.0000E+00  0.8000E+01
      2.357  0.0000E+00  0.8000E+01
      2.362  0.0000E+00  0.8000E+01
      2.367  0.0000E+00  0.8000E+01
      2.371  0.0000E+00  0.8000E+01
      2.376  0.0000E+00  0.8000E+01
      2.381  0.0000E+00  0.8000E+01
      2.385  0.0000E+00  0.8000E+01
      2.390  0.0000E+00  0.8000E+01
      2.395  0.0000E+00  0.8000E+01
      2.399  0.0000E+00  0.8000E+01
      2.404  0.0000E+00  0.8000E+01
      2.409  0.0000E+00  0.8000E+01
      2.413  0.0000E+00  0.8000E+01
      2.418  0.0000E+00  0.8000E+01
      2.423  0.0000E+00  0.8000E+01
      2.427  0.0000E+00  0.8000E+01
      2.432  0.0000E+00  0.8000E+01
      2.437  0.0000E+00  0.8000E+01
      2.441  0.0000E+00  0.8000E+01
      2.446  0.0000E+00  0.8000E+01
      2.451  0.0000E+00  0.8000E+01
      2.455  0.0000E+00  0.8000E+01
      2.460  0.0000E+00  0.8000E+01
      2.465  0.0000E+00  0.8000E+01
      2.469  0.0000E+00  0.8000E+01
      2.474  0.0000E+00  0.8000E+01
      2.479  0.0000E+00  0.8000E+01
      2.483  0.0000E+00  0.8000E+01
      2.488  0.0000E+00  0.8000E+01
      2.493  0.0000E+00  0.8000E+01
      2.497  0.0000E+00  0.8000E+01
      2.502  0.0000E+00  0.8000E+01
      2.507  0.0000E+00  0.8000E+01
      2.512  0.0000E+00  0.8000E+01
      2.516  0.0000E+00  0.8000E+01
      2.521  0.0000E+00  0.8000E+01
      2.526  0.0000E+00  0.8000E+01
      2.530  0.0000E+00  0.8000E+01
      2.535  0.0000E+00  0.8000E+01
      2.540  0.0000E+00  0.8000E+01
      2.544  0.0000E+00  0.8000E+01
      2.549  0.0000E+00  0.8000E+01
      2.554  0.0000E+00  0.8000E+01
      2.558  0.0000E+00  0.8000E+01
      2.563  0.0000E+00  0.8000E+01
      2.568  0.0000E+00  0.8000E+01
      2.572  0.0000E+00  0.8000E+01
      2.577  0.0000E+00  0.8000E+01
      2.582  0.0000E+00  0.8000E+01
      2.586  0.0000E+00  0.8000E+01
      2.591  0.0000E+00  0.8000E+01
      2.596  0.0000E+00  0.8000E+01
      2.600  0.0000E+00  0.8000E+01
      2.605  0.0000E+00  0.8000E+01
      2.610  0.0000E+00  0.8000E+01
      2.614  0.0000E+00  0.8000E+01
      2.619  0.0000E+00  0.8000E+01
      2.624  0.0000E+00  0.8000E+01
      2.628  0.0000E+00  0.8000E+01
      2.633  0.0000E+00  0.8000E+01
      2.638  0.0000E+00  0.8000E+01
      2.642  0.0000E+00  0.8000E+01
      2.647  0.0000E+00  0.8000E+01
      2.652  0.0000E+00  0.8000E+01
      2.656  0.0000E+00  0.8000E+01
      2.661  0.0000E+00  0.8000E+01
      2.666  0.0000E+00  0.8000E+01
      2.670  0.0000E+00  0.8000E+01
      2.675  0.0000E+00  0.8000E+01
      2.680  0.0000E+00  0.8000E+01
      2.684  0.0000E+00  0.8000E+01
      2.689  0.0000E+00  0.8000E+01
      2.694  0.0000E+00  0.8000E+01
      2.698  0.0000E+00  0.8000E+01
      2.703  0.0000E+00  0.8000E+01
      2.708  0.0000E+00  0.8000E+01
      2.712  0.0000E+00  0.8000E+01
      2.717  0.0000E+00  0.8000E+01
      2.722  0.0000E+00  0.8000E+01
      2.726  0.0000E+00  0.8000E+01
      2.731  0.0000E+00  0.8000E+01
      2.736  0.0000E+00  0.8000E+01
      2.740  0.0000E+00  0.8000E+01
      2.745  0.0000E+00  0.8000E+01
      2.750  0.0000E+00  0.8000E+01
      2.754  0.0000E+00  0.8000E+01
      2.759  0.0000E+00  0.8000E+01
      2.764  0.0000E+00  0.8000E+01
      2.768  0.0000E+00  0.8000E+01
      2.773  0.0000E+00  0.8000E+01
      2.778  0.0000E+00  0.8000E+01
      2.782  0.4650E-06  0.8000E+01
      2.787  0.5160E-05  0.8000E+01
      2.792  0.1694E-04  0.8000E+01
      2.796  0.3589E-04  0.8000E+01
      2.801  0.6201E-04  0.8000E+01
      2.806  0.9531E-04  0.8000E+01
      2.810  0.1358E-03  0.8000E+01
      2.815  0.1834E-03  0.8000E+01
      2.820  0.2383E-03  0.8000E+01
      2.824  0.3002E-03  0.8000E+01
      2.829  0.3694E-03  0.8000E+01
      2.834  0.4458E-03  0.8000E+01
      2.838  0.5293E-03  0.8000E+01
      2.843  0.6200E-03  0.8000E+01
      2.848  0.7178E-03  0.8000E+01
      2.852  0.8229E-03  0.8000E+01
      2.857  0.9351E-03  0.8000E+01
      2.862  0.1054E-02  0.8000E+01
      2.866  0.1181E-02  0.8000E+01
      2.871  0.1315E-02  0.8000E+01
      2.876  0.1456E-02  0.8000E+01
      2.880  0.1604E-02  0.8000E+01
      2.885  0.1759E-02  0.8000E+01
      2.890  0.1921E-02  0.8000E+01
      2.894  0.2091E-02  0.8000E+01
      2.899  0.2268E-02  0.8000E+01
      2.904  0.2452E-02  0.8000E+01
      2.908  0.2643E-02  0.8000E+01
      2.913  0.2841E-02  0.8000E+01
      2.918  0.3047E-02  0.8000E+01
      2.922  0.3259E-02  0.8000E+01
      2.927  0.3479E-02  0.8000E+01
      2.932  0.3706E-02  0.8000E+01
      2.936  0.3940E-02  0.8000E+01
      2.941  0.4182E-02  0.8000E+01
      2.946  0.4430E-02  0.8000E+01
      2.950  0.4686E-02  0.8000E+01
      2.955  0.4949E-02  0.8000E+01
      2.960  0.5219E-02  0.8000E+01
      2.964  0.5496E-02  0.8000E+01
      2.969  0.5780E-02  0.8000E+01
      2.974  0.6072E-02  0.8000E+01
      2.978  0.6371E-02  0.8000E+01
      2.983  0.6677E-02  0.8000E+01
      2.988  0.6990E-02  0.8000E+01
      2.992  0.7310E-02  0.8001E+01
      2.997  0.7637E-02  0.8001E+01
      3.002  0.7972E-02  0.8001E+01
      3.006  0.8314E-02  0.8001E+01
      3.011  0.8663E-02  0.8001E+01
      3.016  0.9019E-02  0.8001E+01
      3.020  0.9382E-02  0.8001E+01
      3.025  0.9753E-02  0.8001E+01
      3.030  0.1013E-01  0.8001E+01
      3.034  0.1051E-01  0.8001E+01
      3.039  0.1091E-01  0.8001E+01
      3.044  0.1131E-01  0.8001E+01
      3.048  0.1171E-01  0.8001E+01
      3.053  0.1213E-01  0.8001E+01
      3.058  0.1255E-01  0.8001E+01
      3.062  0.1297E-01  0.8001E+01
      3.067  0.1341E-01  0.8001E+01
      3.072  0.1385E-01  0.8001E+01
      3.076  0.1430E-01  0.8001E+01
      3.081  0.1476E-01  0.8001E+01
      3.086  0.1522E-01  0.8002E+01
      3.090  0.1569E-01  0.8002E+01
      3.095  0.1617E-01  0.8002E+01
      3.100  0.1666E-01  0.8002E+01
      3.104  0.1715E-01  0.8002E+01
      3.109  0.1765E-01  0.8002E+01
      3.114  0.1815E-01  0.8002E+01
      3.118  0.1867E-01  0.8002E+01
      3.123  0.1919E-01  0.8002E+01
      3.128  0.1972E-01  0.8002E+01
      3.132  0.2025E-01  0.8002E+01
      3.137  0.2080E-01  0.8002E+01
      3.142  0.2135E-01  0.8003E+01
      3.146  0.2190E-01  0.8003E+01
      3.151  0.2247E-01  0.8003E+01
      3.156  0.2304E-01  0.8003E+01
      3.160  0.2362E-01  0.8003E+01
      3.165  0.2420E-01  0.8003E+01
      3.170  0.2480E-01  0.8003E+01
      3.174  0.2540E-01  0.8003E+01
      3.179  0.2600E-01  0.8003E+01
      3.184  0.2662E-01  0.8004E+01
      3.188  0.2724E-01  0.8004E+01
      3.193  0.2787E-01  0.8004E+01
      3.198  0.2850E-01  0.8004E+01
      3.202  0.2915E-01  0.8004E+01
      3.207  0.2980E-01  0.8004E+01
      3.212  0.3045E-01  0.8004E+01
      3.216  0.3112E-01  0.8005E+01
      3.221  0.3179E-01  0.8005E+01
      3.226  0.3247E-01  0.8005E+01
      3.230  0.3316E-01  0.8005E+01
      3.235  0.3385E-01  0.8005E+01
      3.240  0.3455E-01  0.8005E+01
      3.244  0.3526E-01  0.8005E+01
      3.249  0.3597E-01  0.8006E+01
      3.254  0.3669E-01  0.8006E+01
      3.258  0.3742E-01  0.8006E+01
      3.263  0.3816E-01  0.8006E+01
      3.268  0.3890E-01  0.8006E+01
      3.272  0.3965E-01  0.8006E+01
      3.277  0.4041E-01  0.8007E+01
      3.282  0.4118E-01  0.8007E+01
      3.286  0.4195E-01  0.8007E+01
      3.291  0.4273E-01  0.8007E+01
      3.296  0.4351E-01  0.8007E+01
      3.300  0.4431E-01  0.8008E+01
      3.305  0.4511E-01  0.8008E+01
      3.310  0.4592E-01  0.8008E+01
      3.314  0.4673E-01  0.8008E+01
      3.319  0.4755E-01  0.8009E+01
      3.324  0.4838E-01  0.8009E+01
      3.328  0.4922E-01  0.8009E+01
      3.333  0.5007E-01  0.8009E+01
      3.338  0.5092E-01  0.8009E+01
      3.342  0.5177E-01  0.8010E+01
      3.347  0.5264E-01  0.8010E+01
      3.352  0.5351E-01  0.8010E+01
      3.356  0.5439E-01  0.8010E+01
      3.361  0.5528E-01  0.8011E+01
      3.366  0.5617E-01  0.8011E+01
      3.370  0.5708E-01  0.8011E+01
      3.375  0.5798E-01  0.8011E+01
      3.380  0.5890E-01  0.8012E+01
      3.384  0.5982E-01  0.8012E+01
      3.389  0.6075E-01  0.8012E+01
      3.394  0.6169E-01  0.8013E+01
      3.398  0.6263E-01  0.8013E+01
      3.403  0.6359E-01  0.8013E+01
      3.408  0.6454E-01  0.8013E+01
      3.412  0.6551E-01  0.8014E+01
      3.417  0.6648E-01  0.8014E+01
      3.422  0.6746E-01  0.8014E+01
      3.426  0.6845E-01  0.8015E+01
      3.431  0.6945E-01  0.8015E+01
      3.436  0.7045E-01  0.8015E+01
      3.440  0.7146E-01  0.8016E+01
      3.445  0.7247E-01  0.8016E+01
      3.450  0.7350E-01  0.8016E+01
      3.454  0.7453E-01  0.8017E+01
      3.459  0.7556E-01  0.8017E+01
      3.464  0.7661E-01  0.8017E+01
      3.468  0.7766E-01  0.8018E+01
      3.473  0.7872E-01  0.8018E+01
      3.478  0.7979E-01  0.8019E+01
      3.482  0.8086E-01  0.8019E+01
      3.487  0.8194E-01  0.8019E+01
      3.492  0.8303E-01  0.8020E+01
      3.496  0.8412E-01  0.8020E+01
      3.501  0.8523E-01  0.8020E+01
      3.506  0.8633E-01  0.8021E+01
      3.511  0.8745E-01  0.8021E+01
      3.515  0.8857E-01  0.8022E+01
      3.520  0.8971E-01  0.8022E+01
      3.525  0.9084E-01  0.8022E+01
      3.529  0.9199E-01  0.8023E+01
      3.534  0.9314E-01  0.8023E+01
      3.539  0.9430E-01  0.8024E+01
      3.543  0.9547E-01  0.8024E+01
      3.548  0.9664E-01  0.8025E+01
      3.553  0.9782E-01  0.8025E+01
      3.557  0.9901E-01  0.8026E+01
      3.562  0.1002E+00  0.8026E+01
      3.567  0.1014E+00  0.8027E+01
      3.571  0.1026E+00  0.8027E+01
      3.576  0.1038E+00  0.8027E+01
      3.581  0.1051E+00  0.8028E+01
      3.585  0.1063E+00  0.8028E+01
      3.590  0.1075E+00  0.8029E+01
      3.595  0.1088E+00  0.8029E+01
      3.599  0.1100E+00  0.8030E+01
      3.604  0.1113E+00  0.8031E+01
      3.609  0.1126E+00  0.8031E+01
      3.613  0.1138E+00  0.8032E+01
      3.618  0.1151E+00  0.8032E+01
      3.623  0.1164E+00  0.8033E+01
      3.627  0.1177E+00  0.8033E+01
      3.632  0.1190E+00  0.8034E+01
      3.637  0.1203E+00  0.8034E+01
      3.641  0.1216E+00  0.8035E+01
      3.646  0.1230E+00  0.8035E+01
      3.651  0.1243E+00  0.8036E+01
      3.655  0.1256E+00  0.8037E+01
      3.660  0.1270E+00  0.8037E+01
      3.665  0.1283E+00  0.8038E+01
      3.669  0.1297E+00  0.8038E+01
      3.674  0.1311E+00  0.8039E+01
      3.679  0.1324E+00  0.8040E+01
      3.683  0.1338E+00  0.8040E+01
      3.688  0.1352E+00  0.8041E+01
      3.693  0.1366E+00  0.8041E+01
      3.697  0.1380E+00  0.8042E+01
      3.702  0.1394E+00  0.8043E+01
      3.707  0.1408E+00  0.8043E+01
      3.711  0.1422E+00  0.8044E+01
      3.716  0.1437E+00  0.8045E+01
      3.721  0.1451E+00  0.8045E+01
      3.725  0.1466E+00  0.8046E+01
      3.730  0.1480E+00  0.8047E+01
      3.735  0.1495E+00  0.8047E+01
      3.739  0.1502E+00  0.8048E+01
      3.744  0.1504E+00  0.8049E+01
      3.749  0.1507E+00  0.8050E+01
      3.753  0.1511E+00  0.8050E+01
      3.758  0.1514E+00  0.8051E+01
      3.763  0.1518E+00  0.8052E+01
      3.767  0.1522E+00  0.8052E+01
      3.772  0.1527E+00  0.8053E+01
      3.777  0.1531E+00  0.8054E+01
      3.781  0.1536E+00  0.8055E+01
      3.786  0.1542E+00  0.8055E+01
      3.791  0.1547E+00  0.8056E+01
      3.795  0.1553E+00  0.8057E+01
      3.800  0.1559E+00  0.8057E+01
      3.805  0.1565E+00  0.8058E+01
      3.809  0.1572E+00  0.8059E+01
      3.814  0.1579E+00  0.8060E+01
      3.819  0.1586E+00  0.8060E+01
      3.823  0.1594E+00  0.8061E+01
      3.828  0.1602E+00  0.8062E+01
      3.833  0.1610E+00  0.8063E+01
      3.837  0.1618E+00  0.8063E+01
      3.842  0.1627E+00  0.8064E+01
      3.847  0.1636E+00  0.8065E+01
      3.851  0.1645E+00  0.8066E+01