 vasp.6.1.0.28Jan20-2100-g9eff9a8f38 (build Oct 01 2021 14:08:46) complex       
  
 executed on             LinuxIFC date 2021.11.04  18:39:50
 running   20 mpi-ranks, with    1 threads/rank
 distrk:  each k-point on   20 cores,    1 groups
 distr:  one band on NCORE=   1 cores,   20 groups


--------------------------------------------------------------------------------------------------------


 INCAR:
   SYSTEM = Ce
   ISTART = 0
   ISMEAR = -5
   NEDOS = 3000
   EDIFF = 1.E-7
   LMAXMIX = 6
   LORBIT = 14
   EMIN = 0
   EMAX = 14
   NBANDS = 40
   LOCPROJ = 1 : f : Pr
   ISYM = -1
   MAGMOM = 3*0
   LSORBIT = .TRUE.
   LORBMOM = .TRUE.
   SAXIS = 0 0 1
   GGA_COMPAT = .FALSE.

 POTCAR:    PAW_PBE Ce 23Dec2003                  
 POTCAR:    PAW_PBE Ce 23Dec2003                  
   SHA256 =  00bd3101dba980d69718c826e9aff48526de61f93249f80fb0d1cde9afca69b7 Ce/POTCAR             
   COPYR  = (c) Copyright 23Dec2003 Georg Kresse                                                    
   COPYR  = This file is part of the software VASP. Any use, copying, and all other rights are regul
   COPYR  = If you do not have a valid VASP license, you may not use, copy or distribute this file. 
   VRHFIN =Ce : [core= Kr 4d10]                                                                     
   LEXCH  = PE                                                                                      
   EATOM  =  1063.0861 eV,   78.1346 Ry                                                             
                                                                                                    
   TITEL  = PAW_PBE Ce 23Dec2003                                                                    
   LULTRA =        F    use ultrasoft PP ?                                                          
   IUNSCR =        1    unscreen: 0-lin 1-nonlin 2-no                                               
   RPACOR =    1.800    partial core radius                                                         
   POMASS =  140.115; ZVAL   =   12.000    mass and valenz                                          
   RCORE  =    2.700    outmost cutoff radius                                                       
   RWIGS  =    2.500; RWIGS  =    1.323    wigner-seitz radius (au A)                               
   ENMAX  =  273.042; ENMIN  =  204.781 eV                                                          
   RCLOC  =    1.810    cutoff for local pot                                                        
   LCOR   =        T    correct aug charges                                                         
   LPAW   =        T    paw PP                                                                      
   EAUG   =  580.196                                                                                
   DEXC   =    0.000                                                                                
   RMAX   =    2.749    core radius for proj-oper                                                   
   RAUG   =    1.300    factor for augmentation sphere                                              
   RDEP   =    2.810    radius for radial grids                                                     
   RDEPT  =    2.162    core radius for aug-charge                                                  
                                                                                                    
   Atomic configuration                                                                             
   14 entries                                                                                       
     n  l   j            E        occ.                                                              
     1  0  0.50    -40258.9816   2.0000                                                             
     2  0  0.50     -6445.4884   2.0000                                                             
     2  1  1.50     -5771.7470   6.0000                                                             
     3  0  0.50     -1387.9739   2.0000                                                             
     3  1  1.50     -1173.8158   6.0000                                                             
     3  2  2.50      -869.9108  10.0000                                                             
     4  0  0.50      -280.8706   2.0000                                                             
     4  1  1.50      -210.9815   6.0000                                                             
     4  2  2.50      -110.4558  10.0000                                                             
     5  0  0.50       -40.5819   2.0000                                                             
     6  0  0.50        -3.7444   2.0000                                                             
     5  1  1.50       -23.2188   6.0000                                                             
     5  2  2.50        -3.0598   1.0000                                                             
     4  3  2.50        -5.3970   1.0000                                                             
   Description                                                                                      
     l       E           TYP  RCUT    TYP  RCUT                                                     
     0    -40.5819164     23  1.500                                                                 
     0     -3.7443793     23  2.300                                                                 
     1    -23.2188445     23  2.000                                                                 
     1     40.8174780     23  2.300                                                                 
     2     -3.0597556     23  2.500                                                                 
     2     13.6058260     23  2.500                                                                 
     3     -5.3970469     23  2.700                                                                 
     3     -5.8505052     23  2.700                                                                 
  local pseudopotential read in
  partial core-charges read in
  partial kinetic energy density read in
  atomic valenz-charges read in
  non local Contribution for L=           0  read in
    real space projection operators read in
  non local Contribution for L=           0  read in
    real space projection operators read in
  non local Contribution for L=           1  read in
    real space projection operators read in
  non local Contribution for L=           1  read in
    real space projection operators read in
  non local Contribution for L=           2  read in
    real space projection operators read in
  non local Contribution for L=           2  read in
    real space projection operators read in
  non local Contribution for L=           3  read in
    real space projection operators read in
  non local Contribution for L=           3  read in
    real space projection operators read in
    PAW grid and wavefunctions read in
 
   number of l-projection  operators is LMAX  =           8
   number of lm-projection operators is LMMAX =          32
 
  PAW_PBE Ce 23Dec2003                  :
 energy of atom  1       EATOM=-1063.0861
 kinetic energy error for atom=    0.0809 (will be added to EATOM!!)
 
 
 POSCAR: Ce
  positions in direct lattice
  No initial velocities read in
 WARNING: For meta-GGA calculations it is strongly recommended to include
     aspherical contributions to the potential inside the PAW spheres (set
     LASPH = .TRUE.)

 exchange correlation table for  LEXCH =        8
   RHO(1)=    0.500       N(1)  =     2000
   RHO(2)=  100.500       N(2)  =     4000
 


--------------------------------------------------------------------------------------------------------


 ion  position               nearest neighbor table
   1  0.000  0.000  0.000-
 

IMPORTANT INFORMATION: All symmetrisations will be switched off!
NOSYMM: (Re-)initialisation of all symmetry stuff for point group C_1.


----------------------------------------------------------------------------------------

                                     Primitive cell                                     

  volume of cell :      37.6440

  direct lattice vectors                    reciprocal lattice vectors
     0.000000000  2.660042906  2.660042906    -0.187966893  0.187966893  0.187966893
     2.660042906  0.000000000  2.660042906     0.187966893 -0.187966893  0.187966893
     2.660042906  2.660042906  0.000000000     0.187966893  0.187966893 -0.187966893

  length of vectors
     3.761868754  3.761868754  3.761868754     0.325568209  0.325568209  0.325568209

  position of ions in fractional coordinates (direct lattice)
     0.000000000  0.000000000  0.000000000

  ion indices of the primitive-cell ions
   primitive index   ion index
                 1           1

----------------------------------------------------------------------------------------

 
 
 KPOINTS: Automatically generated mesh            

Automatic generation of k-mesh.
 Grid dimensions read from file:
 generate k-points for:    5    5    5

 Generating k-lattice:

  Cartesian coordinates                     Fractional coordinates (reciprocal lattice)
    -0.037593379  0.037593379  0.037593379     0.200000000 -0.000000000  0.000000000
     0.037593379 -0.037593379  0.037593379    -0.000000000  0.200000000 -0.000000000
     0.037593379  0.037593379 -0.037593379     0.000000000  0.000000000  0.200000000

  Length of vectors
     0.065113642  0.065113642  0.065113642

  Shift w.r.t. Gamma in fractional coordinates (k-lattice)
     0.000000000  0.000000000  0.000000000

 TETIRR: Found    750 inequivalent tetrahedra from      750
 
 Subroutine IBZKPT returns following result:
 ===========================================
 
 Found    125 irreducible k-points:
 
 Following reciprocal coordinates:
            Coordinates               Weight
  0.000000  0.000000  0.000000      1.000000
  0.200000  0.000000 -0.000000      1.000000
  0.400000 -0.000000  0.000000      1.000000
 -0.400000  0.000000 -0.000000      1.000000
 -0.200000 -0.000000  0.000000      1.000000
  0.000000  0.200000  0.000000      1.000000
  0.200000  0.200000 -0.000000      1.000000
  0.400000  0.200000  0.000000      1.000000
 -0.400000  0.200000 -0.000000      1.000000
 -0.200000  0.200000  0.000000      1.000000
 -0.000000  0.400000 -0.000000      1.000000
  0.200000  0.400000 -0.000000      1.000000
  0.400000  0.400000 -0.000000      1.000000
 -0.400000  0.400000 -0.000000      1.000000
 -0.200000  0.400000 -0.000000      1.000000
  0.000000 -0.400000  0.000000      1.000000
  0.200000 -0.400000  0.000000      1.000000
  0.400000 -0.400000  0.000000      1.000000
 -0.400000 -0.400000  0.000000      1.000000
 -0.200000 -0.400000  0.000000      1.000000
 -0.000000 -0.200000 -0.000000      1.000000
  0.200000 -0.200000 -0.000000      1.000000
  0.400000 -0.200000  0.000000      1.000000
 -0.400000 -0.200000 -0.000000      1.000000
 -0.200000 -0.200000  0.000000      1.000000
 -0.000000 -0.000000  0.200000      1.000000
  0.200000  0.000000  0.200000      1.000000
  0.400000 -0.000000  0.200000      1.000000
 -0.400000  0.000000  0.200000      1.000000
 -0.200000 -0.000000  0.200000      1.000000
  0.000000  0.200000  0.200000      1.000000
  0.200000  0.200000  0.200000      1.000000
  0.400000  0.200000  0.200000      1.000000
 -0.400000  0.200000  0.200000      1.000000
 -0.200000  0.200000  0.200000      1.000000
 -0.000000  0.400000  0.200000      1.000000
  0.200000  0.400000  0.200000      1.000000
  0.400000  0.400000  0.200000      1.000000
 -0.400000  0.400000  0.200000      1.000000
 -0.200000  0.400000  0.200000      1.000000
  0.000000 -0.400000  0.200000      1.000000
  0.200000 -0.400000  0.200000      1.000000
  0.400000 -0.400000  0.200000      1.000000
 -0.400000 -0.400000  0.200000      1.000000
 -0.200000 -0.400000  0.200000      1.000000
 -0.000000 -0.200000  0.200000      1.000000
  0.200000 -0.200000  0.200000      1.000000
  0.400000 -0.200000  0.200000      1.000000
 -0.400000 -0.200000  0.200000      1.000000
 -0.200000 -0.200000  0.200000      1.000000
  0.000000  0.000000  0.400000      1.000000
  0.200000  0.000000  0.400000      1.000000
  0.400000  0.000000  0.400000      1.000000
 -0.400000  0.000000  0.400000      1.000000
 -0.200000  0.000000  0.400000      1.000000
  0.000000  0.200000  0.400000      1.000000
  0.200000  0.200000  0.400000      1.000000
  0.400000  0.200000  0.400000      1.000000
 -0.400000  0.200000  0.400000      1.000000
 -0.200000  0.200000  0.400000      1.000000
  0.000000  0.400000  0.400000      1.000000
  0.200000  0.400000  0.400000      1.000000
  0.400000  0.400000  0.400000      1.000000
 -0.400000  0.400000  0.400000      1.000000
 -0.200000  0.400000  0.400000      1.000000
  0.000000 -0.400000  0.400000      1.000000
  0.200000 -0.400000  0.400000      1.000000
  0.400000 -0.400000  0.400000      1.000000
 -0.400000 -0.400000  0.400000      1.000000
 -0.200000 -0.400000  0.400000      1.000000
  0.000000 -0.200000  0.400000      1.000000
  0.200000 -0.200000  0.400000      1.000000
  0.400000 -0.200000  0.400000      1.000000
 -0.400000 -0.200000  0.400000      1.000000
 -0.200000 -0.200000  0.400000      1.000000
 -0.000000 -0.000000 -0.400000      1.000000
  0.200000 -0.000000 -0.400000      1.000000
  0.400000 -0.000000 -0.400000      1.000000
 -0.400000 -0.000000 -0.400000      1.000000
 -0.200000 -0.000000 -0.400000      1.000000
 -0.000000  0.200000 -0.400000      1.000000
  0.200000  0.200000 -0.400000      1.000000
  0.400000  0.200000 -0.400000      1.000000
 -0.400000  0.200000 -0.400000      1.000000
 -0.200000  0.200000 -0.400000      1.000000
 -0.000000  0.400000 -0.400000      1.000000
  0.200000  0.400000 -0.400000      1.000000
  0.400000  0.400000 -0.400000      1.000000
 -0.400000  0.400000 -0.400000      1.000000
 -0.200000  0.400000 -0.400000      1.000000
 -0.000000 -0.400000 -0.400000      1.000000
  0.200000 -0.400000 -0.400000      1.000000
  0.400000 -0.400000 -0.400000      1.000000
 -0.400000 -0.400000 -0.400000      1.000000
 -0.200000 -0.400000 -0.400000      1.000000
 -0.000000 -0.200000 -0.400000      1.000000
  0.200000 -0.200000 -0.400000      1.000000
  0.400000 -0.200000 -0.400000      1.000000
 -0.400000 -0.200000 -0.400000      1.000000
 -0.200000 -0.200000 -0.400000      1.000000
  0.000000  0.000000 -0.200000      1.000000
  0.200000  0.000000 -0.200000      1.000000
  0.400000 -0.000000 -0.200000      1.000000
 -0.400000  0.000000 -0.200000      1.000000
 -0.200000 -0.000000 -0.200000      1.000000
  0.000000  0.200000 -0.200000      1.000000
  0.200000  0.200000 -0.200000      1.000000
  0.400000  0.200000 -0.200000      1.000000
 -0.400000  0.200000 -0.200000      1.000000
 -0.200000  0.200000 -0.200000      1.000000
 -0.000000  0.400000 -0.200000      1.000000
  0.200000  0.400000 -0.200000      1.000000
  0.400000  0.400000 -0.200000      1.000000
 -0.400000  0.400000 -0.200000      1.000000
 -0.200000  0.400000 -0.200000      1.000000
  0.000000 -0.400000 -0.200000      1.000000
  0.200000 -0.400000 -0.200000      1.000000
  0.400000 -0.400000 -0.200000      1.000000
 -0.400000 -0.400000 -0.200000      1.000000
 -0.200000 -0.400000 -0.200000      1.000000
 -0.000000 -0.200000 -0.200000      1.000000
  0.200000 -0.200000 -0.200000      1.000000
  0.400000 -0.200000 -0.200000      1.000000
 -0.400000 -0.200000 -0.200000      1.000000
 -0.200000 -0.200000 -0.200000      1.000000
 
 Following cartesian coordinates:
            Coordinates               Weight
  0.000000  0.000000  0.000000      1.000000
 -0.046042  0.046042  0.046042      1.000000
 -0.092085  0.092085  0.092085      1.000000
  0.092085 -0.092085 -0.092085      1.000000
  0.046042 -0.046042 -0.046042      1.000000
  0.046042 -0.046042  0.046042      1.000000
  0.000000 -0.000000  0.092085      1.000000
 -0.046042  0.046042  0.138127      1.000000
  0.138127 -0.138127 -0.046042      1.000000
  0.092085 -0.092085  0.000000      1.000000
  0.092085 -0.092085  0.092085      1.000000
  0.046042 -0.046042  0.138127      1.000000
 -0.000000  0.000000  0.184169      1.000000
  0.184169 -0.184169  0.000000      1.000000
  0.138127 -0.138127  0.046042      1.000000
 -0.092085  0.092085 -0.092085      1.000000
 -0.138127  0.138127 -0.046042      1.000000
 -0.184169  0.184169 -0.000000      1.000000
  0.000000 -0.000000 -0.184169      1.000000
 -0.046042  0.046042 -0.138127      1.000000
 -0.046042  0.046042 -0.046042      1.000000
 -0.092085  0.092085 -0.000000      1.000000
 -0.138127  0.138127  0.046042      1.000000
  0.046042 -0.046042 -0.138127      1.000000
 -0.000000  0.000000 -0.092085      1.000000
  0.046042  0.046042 -0.046042      1.000000
  0.000000  0.092085 -0.000000      1.000000
 -0.046042  0.138127  0.046042      1.000000
  0.138127 -0.046042 -0.138127      1.000000
  0.092085  0.000000 -0.092085      1.000000
  0.092085  0.000000 -0.000000      1.000000
  0.046042  0.046042  0.046042      1.000000
  0.000000  0.092085  0.092085      1.000000
  0.184169 -0.092085 -0.092085      1.000000
  0.138127 -0.046042 -0.046042      1.000000
  0.138127 -0.046042  0.046042      1.000000
  0.092085  0.000000  0.092085      1.000000
  0.046042  0.046042  0.138127      1.000000
  0.230212 -0.138127 -0.046042      1.000000
  0.184169 -0.092085 -0.000000      1.000000
 -0.046042  0.138127 -0.138127      1.000000
 -0.092085  0.184169 -0.092085      1.000000
 -0.138127  0.230212 -0.046042      1.000000
  0.046042  0.046042 -0.230212      1.000000
  0.000000  0.092085 -0.184169      1.000000
  0.000000  0.092085 -0.092085      1.000000
 -0.046042  0.138127 -0.046042      1.000000
 -0.092085  0.184169 -0.000000      1.000000
  0.092085  0.000000 -0.184169      1.000000
  0.046042  0.046042 -0.138127      1.000000
  0.092085  0.092085 -0.092085      1.000000
  0.046042  0.138127 -0.046042      1.000000
 -0.000000  0.184169  0.000000      1.000000
  0.184169 -0.000000 -0.184169      1.000000
  0.138127  0.046042 -0.138127      1.000000
  0.138127  0.046042 -0.046042      1.000000
  0.092085  0.092085  0.000000      1.000000
  0.046042  0.138127  0.046042      1.000000
  0.230212 -0.046042 -0.138127      1.000000
  0.184169 -0.000000 -0.092085      1.000000
  0.184169 -0.000000  0.000000      1.000000
  0.138127  0.046042  0.046042      1.000000
  0.092085  0.092085  0.092085      1.000000
  0.276254 -0.092085 -0.092085      1.000000
  0.230212 -0.046042 -0.046042      1.000000
 -0.000000  0.184169 -0.184169      1.000000
 -0.046042  0.230212 -0.138127      1.000000
 -0.092085  0.276254 -0.092085      1.000000
  0.092085  0.092085 -0.276254      1.000000
  0.046042  0.138127 -0.230212      1.000000
  0.046042  0.138127 -0.138127      1.000000
 -0.000000  0.184169 -0.092085      1.000000
 -0.046042  0.230212 -0.046042      1.000000
  0.138127  0.046042 -0.230212      1.000000
  0.092085  0.092085 -0.184169      1.000000
 -0.092085 -0.092085  0.092085      1.000000
 -0.138127 -0.046042  0.138127      1.000000
 -0.184169  0.000000  0.184169      1.000000
  0.000000 -0.184169 -0.000000      1.000000
 -0.046042 -0.138127  0.046042      1.000000
 -0.046042 -0.138127  0.138127      1.000000
 -0.092085 -0.092085  0.184169      1.000000
 -0.138127 -0.046042  0.230212      1.000000
  0.046042 -0.230212  0.046042      1.000000
  0.000000 -0.184169  0.092085      1.000000
  0.000000 -0.184169  0.184169      1.000000
 -0.046042 -0.138127  0.230212      1.000000
 -0.092085 -0.092085  0.276254      1.000000
  0.092085 -0.276254  0.092085      1.000000
  0.046042 -0.230212  0.138127      1.000000
 -0.184169  0.000000 -0.000000      1.000000
 -0.230212  0.046042  0.046042      1.000000
 -0.276254  0.092085  0.092085      1.000000
 -0.092085 -0.092085 -0.092085      1.000000
 -0.138127 -0.046042 -0.046042      1.000000
 -0.138127 -0.046042  0.046042      1.000000
 -0.184169  0.000000  0.092085      1.000000
 -0.230212  0.046042  0.138127      1.000000
 -0.046042 -0.138127 -0.046042      1.000000
 -0.092085 -0.092085 -0.000000      1.000000
 -0.046042 -0.046042  0.046042      1.000000
 -0.092085 -0.000000  0.092085      1.000000
 -0.138127  0.046042  0.138127      1.000000
  0.046042 -0.138127 -0.046042      1.000000
 -0.000000 -0.092085  0.000000      1.000000
 -0.000000 -0.092085  0.092085      1.000000
 -0.046042 -0.046042  0.138127      1.000000
 -0.092085 -0.000000  0.184169      1.000000
  0.092085 -0.184169  0.000000      1.000000
  0.046042 -0.138127  0.046042      1.000000
  0.046042 -0.138127  0.138127      1.000000
 -0.000000 -0.092085  0.184169      1.000000
 -0.046042 -0.046042  0.230212      1.000000
  0.138127 -0.230212  0.046042      1.000000
  0.092085 -0.184169  0.092085      1.000000
 -0.138127  0.046042 -0.046042      1.000000
 -0.184169  0.092085  0.000000      1.000000
 -0.230212  0.138127  0.046042      1.000000
 -0.046042 -0.046042 -0.138127      1.000000
 -0.092085 -0.000000 -0.092085      1.000000
 -0.092085 -0.000000  0.000000      1.000000
 -0.138127  0.046042  0.046042      1.000000
 -0.184169  0.092085  0.092085      1.000000
 -0.000000 -0.092085 -0.092085      1.000000
 -0.046042 -0.046042 -0.046042      1.000000
 
 WARNING: full set of k-points will be restricted to regular points only.

 
 Subroutine IBZKPT_HF returns following result:
 ==============================================
 
 Found    125 k-points in 1st BZ
 the following    125 k-points will be used (e.g. in the exchange kernel)
 Following reciprocal coordinates:   # in IRBZ
  0.000000  0.000000  0.000000    0.00800000   1 t-inv F
  0.200000  0.000000 -0.000000    0.00800000   2 t-inv F
  0.400000 -0.000000  0.000000    0.00800000   3 t-inv F
 -0.400000  0.000000 -0.000000    0.00800000   4 t-inv F
 -0.200000 -0.000000  0.000000    0.00800000   5 t-inv F
  0.000000  0.200000  0.000000    0.00800000   6 t-inv F
  0.200000  0.200000 -0.000000    0.00800000   7 t-inv F
  0.400000  0.200000  0.000000    0.00800000   8 t-inv F
 -0.400000  0.200000 -0.000000    0.00800000   9 t-inv F
 -0.200000  0.200000  0.000000    0.00800000  10 t-inv F
 -0.000000  0.400000 -0.000000    0.00800000  11 t-inv F
  0.200000  0.400000 -0.000000    0.00800000  12 t-inv F
  0.400000  0.400000 -0.000000    0.00800000  13 t-inv F
 -0.400000  0.400000 -0.000000    0.00800000  14 t-inv F
 -0.200000  0.400000 -0.000000    0.00800000  15 t-inv F
  0.000000 -0.400000  0.000000    0.00800000  16 t-inv F
  0.200000 -0.400000  0.000000    0.00800000  17 t-inv F
  0.400000 -0.400000  0.000000    0.00800000  18 t-inv F
 -0.400000 -0.400000  0.000000    0.00800000  19 t-inv F
 -0.200000 -0.400000  0.000000    0.00800000  20 t-inv F
 -0.000000 -0.200000 -0.000000    0.00800000  21 t-inv F
  0.200000 -0.200000 -0.000000    0.00800000  22 t-inv F
  0.400000 -0.200000  0.000000    0.00800000  23 t-inv F
 -0.400000 -0.200000 -0.000000    0.00800000  24 t-inv F
 -0.200000 -0.200000  0.000000    0.00800000  25 t-inv F
 -0.000000 -0.000000  0.200000    0.00800000  26 t-inv F
  0.200000  0.000000  0.200000    0.00800000  27 t-inv F
  0.400000 -0.000000  0.200000    0.00800000  28 t-inv F
 -0.400000  0.000000  0.200000    0.00800000  29 t-inv F
 -0.200000 -0.000000  0.200000    0.00800000  30 t-inv F
  0.000000  0.200000  0.200000    0.00800000  31 t-inv F
  0.200000  0.200000  0.200000    0.00800000  32 t-inv F
  0.400000  0.200000  0.200000    0.00800000  33 t-inv F
 -0.400000  0.200000  0.200000    0.00800000  34 t-inv F
 -0.200000  0.200000  0.200000    0.00800000  35 t-inv F
 -0.000000  0.400000  0.200000    0.00800000  36 t-inv F
  0.200000  0.400000  0.200000    0.00800000  37 t-inv F
  0.400000  0.400000  0.200000    0.00800000  38 t-inv F
 -0.400000  0.400000  0.200000    0.00800000  39 t-inv F
 -0.200000  0.400000  0.200000    0.00800000  40 t-inv F
  0.000000 -0.400000  0.200000    0.00800000  41 t-inv F
  0.200000 -0.400000  0.200000    0.00800000  42 t-inv F
  0.400000 -0.400000  0.200000    0.00800000  43 t-inv F
 -0.400000 -0.400000  0.200000    0.00800000  44 t-inv F
 -0.200000 -0.400000  0.200000    0.00800000  45 t-inv F
 -0.000000 -0.200000  0.200000    0.00800000  46 t-inv F
  0.200000 -0.200000  0.200000    0.00800000  47 t-inv F
  0.400000 -0.200000  0.200000    0.00800000  48 t-inv F
 -0.400000 -0.200000  0.200000    0.00800000  49 t-inv F
 -0.200000 -0.200000  0.200000    0.00800000  50 t-inv F
  0.000000  0.000000  0.400000    0.00800000  51 t-inv F
  0.200000  0.000000  0.400000    0.00800000  52 t-inv F
  0.400000  0.000000  0.400000    0.00800000  53 t-inv F
 -0.400000  0.000000  0.400000    0.00800000  54 t-inv F
 -0.200000  0.000000  0.400000    0.00800000  55 t-inv F
  0.000000  0.200000  0.400000    0.00800000  56 t-inv F
  0.200000  0.200000  0.400000    0.00800000  57 t-inv F
  0.400000  0.200000  0.400000    0.00800000  58 t-inv F
 -0.400000  0.200000  0.400000    0.00800000  59 t-inv F
 -0.200000  0.200000  0.400000    0.00800000  60 t-inv F
  0.000000  0.400000  0.400000    0.00800000  61 t-inv F
  0.200000  0.400000  0.400000    0.00800000  62 t-inv F
  0.400000  0.400000  0.400000    0.00800000  63 t-inv F
 -0.400000  0.400000  0.400000    0.00800000  64 t-inv F
 -0.200000  0.400000  0.400000    0.00800000  65 t-inv F
  0.000000 -0.400000  0.400000    0.00800000  66 t-inv F
  0.200000 -0.400000  0.400000    0.00800000  67 t-inv F
  0.400000 -0.400000  0.400000    0.00800000  68 t-inv F
 -0.400000 -0.400000  0.400000    0.00800000  69 t-inv F
 -0.200000 -0.400000  0.400000    0.00800000  70 t-inv F
  0.000000 -0.200000  0.400000    0.00800000  71 t-inv F
  0.200000 -0.200000  0.400000    0.00800000  72 t-inv F
  0.400000 -0.200000  0.400000    0.00800000  73 t-inv F
 -0.400000 -0.200000  0.400000    0.00800000  74 t-inv F
 -0.200000 -0.200000  0.400000    0.00800000  75 t-inv F
 -0.000000 -0.000000 -0.400000    0.00800000  76 t-inv F
  0.200000 -0.000000 -0.400000    0.00800000  77 t-inv F
  0.400000 -0.000000 -0.400000    0.00800000  78 t-inv F
 -0.400000 -0.000000 -0.400000    0.00800000  79 t-inv F
 -0.200000 -0.000000 -0.400000    0.00800000  80 t-inv F
 -0.000000  0.200000 -0.400000    0.00800000  81 t-inv F
  0.200000  0.200000 -0.400000    0.00800000  82 t-inv F
  0.400000  0.200000 -0.400000    0.00800000  83 t-inv F
 -0.400000  0.200000 -0.400000    0.00800000  84 t-inv F
 -0.200000  0.200000 -0.400000    0.00800000  85 t-inv F
 -0.000000  0.400000 -0.400000    0.00800000  86 t-inv F
  0.200000  0.400000 -0.400000    0.00800000  87 t-inv F
  0.400000  0.400000 -0.400000    0.00800000  88 t-inv F
 -0.400000  0.400000 -0.400000    0.00800000  89 t-inv F
 -0.200000  0.400000 -0.400000    0.00800000  90 t-inv F
 -0.000000 -0.400000 -0.400000    0.00800000  91 t-inv F
  0.200000 -0.400000 -0.400000    0.00800000  92 t-inv F
  0.400000 -0.400000 -0.400000    0.00800000  93 t-inv F
 -0.400000 -0.400000 -0.400000    0.00800000  94 t-inv F
 -0.200000 -0.400000 -0.400000    0.00800000  95 t-inv F
 -0.000000 -0.200000 -0.400000    0.00800000  96 t-inv F
  0.200000 -0.200000 -0.400000    0.00800000  97 t-inv F
  0.400000 -0.200000 -0.400000    0.00800000  98 t-inv F
 -0.400000 -0.200000 -0.400000    0.00800000  99 t-inv F
 -0.200000 -0.200000 -0.400000    0.00800000 100 t-inv F
  0.000000  0.000000 -0.200000    0.00800000 101 t-inv F
  0.200000  0.000000 -0.200000    0.00800000 102 t-inv F
  0.400000 -0.000000 -0.200000    0.00800000 103 t-inv F
 -0.400000  0.000000 -0.200000    0.00800000 104 t-inv F
 -0.200000 -0.000000 -0.200000    0.00800000 105 t-inv F
  0.000000  0.200000 -0.200000    0.00800000 106 t-inv F
  0.200000  0.200000 -0.200000    0.00800000 107 t-inv F
  0.400000  0.200000 -0.200000    0.00800000 108 t-inv F
 -0.400000  0.200000 -0.200000    0.00800000 109 t-inv F
 -0.200000  0.200000 -0.200000    0.00800000 110 t-inv F
 -0.000000  0.400000 -0.200000    0.00800000 111 t-inv F
  0.200000  0.400000 -0.200000    0.00800000 112 t-inv F
  0.400000  0.400000 -0.200000    0.00800000 113 t-inv F
 -0.400000  0.400000 -0.200000    0.00800000 114 t-inv F
 -0.200000  0.400000 -0.200000    0.00800000 115 t-inv F
  0.000000 -0.400000 -0.200000    0.00800000 116 t-inv F
  0.200000 -0.400000 -0.200000    0.00800000 117 t-inv F
  0.400000 -0.400000 -0.200000    0.00800000 118 t-inv F
 -0.400000 -0.400000 -0.200000    0.00800000 119 t-inv F
 -0.200000 -0.400000 -0.200000    0.00800000 120 t-inv F
 -0.000000 -0.200000 -0.200000    0.00800000 121 t-inv F
  0.200000 -0.200000 -0.200000    0.00800000 122 t-inv F
  0.400000 -0.200000 -0.200000    0.00800000 123 t-inv F
 -0.400000 -0.200000 -0.200000    0.00800000 124 t-inv F
 -0.200000 -0.200000 -0.200000    0.00800000 125 t-inv F


--------------------------------------------------------------------------------------------------------




 Dimension of arrays:
   k-points           NKPTS =    125   k-points in BZ     NKDIM =    125   number of bands    NBANDS=     40
   number of dos      NEDOS =   3000   number of ions     NIONS =      1
   non local maximal  LDIM  =      8   non local SUM 2l+1 LMDIM =     32
   total plane-waves  NPLWV =   4096
   max r-space proj   IRMAX =      1   max aug-charges    IRDMAX=   5934
   dimension x,y,z NGX =    16 NGY =   16 NGZ =   16
   dimension x,y,z NGXF=    32 NGYF=   32 NGZF=   32
   support grid    NGXF=    32 NGYF=   32 NGZF=   32
   ions per type =               1
   NGX,Y,Z   is equivalent  to a cutoff of   7.07,  7.07,  7.07 a.u.
   NGXF,Y,Z  is equivalent  to a cutoff of  14.14, 14.14, 14.14 a.u.

 SYSTEM =  Ce                                      
 POSCAR =  Ce                                      

 Startparameter for this run:
   NWRITE =      2    write-flag & timer
   PREC   = normal    normal or accurate (medium, high low for compatibility)
   ISTART =      0    job   : 0-new  1-cont  2-samecut
   ICHARG =      2    charge: 1-file 2-atom 10-const
   ISPIN  =      1    spin polarized calculation?
   LNONCOLLINEAR =      T non collinear calculations
   LSORBIT =      T    spin-orbit coupling
   INIWAV =      1    electr: 0-lowe 1-rand  2-diag
   LASPH  =      F    aspherical Exc in radial PAW
 Electronic Relaxation 1
   ENCUT  =  273.0 eV  20.07 Ry    4.48 a.u.   5.07  5.07  5.07*2*pi/ulx,y,z
   ENINI  =  273.0     initial cutoff
   ENAUG  =  580.2 eV  augmentation charge cutoff
   NELM   =     60;   NELMIN=  2; NELMDL= -5     # of ELM steps 
   EDIFF  = 0.1E-06   stopping-criterion for ELM
   LREAL  =      F    real-space projection
   NLSPLINE    = F    spline interpolate recip. space projectors
   LCOMPAT=      F    compatible to vasp.4.4
   GGA_COMPAT  = F    GGA compatible to vasp.4.4-vasp.4.6
   LMAXPAW     = -100 max onsite density
   LMAXMIX     =    6 max onsite mixed and CHGCAR
   VOSKOWN=      0    Vosko Wilk Nusair interpolation
   ROPT   =    0.00000
 Ionic relaxation
   EDIFFG = 0.1E-05   stopping-criterion for IOM
   NSW    =      0    number of steps for IOM
   NBLOCK =      1;   KBLOCK =      1    inner block; outer block 
   IBRION =     -1    ionic relax: 0-MD 1-quasi-New 2-CG
   NFREE  =      0    steps in history (QN), initial steepest desc. (CG)
   ISIF   =      2    stress and relaxation
   IWAVPR =     10    prediction:  0-non 1-charg 2-wave 3-comb
   ISYM   =     -1    0-nonsym 1-usesym 2-fastsym
   LCORR  =      T    Harris-Foulkes like correction to forces

   POTIM  = 0.5000    time-step for ionic-motion
   TEIN   =    0.0    initial temperature
   TEBEG  =    0.0;   TEEND  =   0.0 temperature during run
   SMASS  =  -3.00    Nose mass-parameter (am)
   estimated Nose-frequenzy (Omega)   =  0.10E-29 period in steps = 0.13E+47 mass=  -0.323E-27a.u.
   SCALEE = 1.0000    scale energy and forces
   NPACO  =    256;   APACO  = 16.0  distance and # of slots for P.C.
   PSTRESS=    0.0 pullay stress

  Mass of Ions in am
   POMASS = 140.12
  Ionic Valenz
   ZVAL   =  12.00
  Atomic Wigner-Seitz radii
   RWIGS  =  -1.00
  virtual crystal weights 
   VCA    =   1.00
   NELECT =      12.0000    total number of electrons
   NUPDOWN=      -1.0000    fix difference up-down

 DOS related values:
   EMIN   =   0.00;   EMAX   = 14.00  energy-range for DOS
   EFERMI =   0.00
   ISMEAR =    -5;   SIGMA  =   0.20  broadening in eV -4-tet -1-fermi 0-gaus

 Electronic relaxation 2 (details)
   IALGO  =     38    algorithm
   LDIAG  =      T    sub-space diagonalisation (order eigenvalues)
   LSUBROT=      F    optimize rotation matrix (better conditioning)
   TURBO    =      0    0=normal 1=particle mesh
   IRESTART =      0    0=no restart 2=restart with 2 vectors
   NREBOOT  =      0    no. of reboots
   NMIN     =      0    reboot dimension
   EREF     =   0.00    reference energy to select bands
   IMIX   =      4    mixing-type and parameters
     AMIX     =   0.40;   BMIX     =  1.00
     AMIX_MAG =   1.60;   BMIX_MAG =  1.00
     AMIN     =   0.10
     WC   =   100.;   INIMIX=   1;  MIXPRE=   1;  MAXMIX= -45

 Intra band minimization:
   WEIMIN = 0.0000     energy-eigenvalue tresh-hold
   EBREAK =  0.63E-09  absolut break condition
   DEPER  =   0.30     relativ break condition  

   TIME   =   0.40     timestep for ELM

  volume/ion in A,a.u.               =      37.64       254.03
  Fermi-wavevector in a.u.,A,eV,Ry     =   1.118330  2.113337 17.016287  1.250662
  Thomas-Fermi vector in A             =   2.254960
 
 Write flags
   LWAVE        =      T    write WAVECAR
   LDOWNSAMPLE  =      F    k-point downsampling of WAVECAR
   LCHARG       =      T    write CHGCAR
   LVTOT        =      F    write LOCPOT, total local potential
   LVHAR        =      F    write LOCPOT, Hartree potential only
   LELF         =      F    write electronic localiz. function (ELF)
   LORBIT       =     14    0 simple, 1 ext, 2 COOP (PROOUT), +10 PAW based schemes


 Dipole corrections
   LMONO  =      F    monopole corrections only (constant potential shift)
   LDIPOL =      F    correct potential (dipole corrections)
   IDIPOL =      0    1-x, 2-y, 3-z, 4-all directions 
   EPSILON=  1.0000000 bulk dielectric constant

 Exchange correlation treatment:
   GGA     =    --    GGA type
   LEXCH   =     8    internal setting for exchange type
   VOSKOWN=      0    Vosko Wilk Nusair interpolation
   LHFCALC =     F    Hartree Fock is set to
   LHFONE  =     F    Hartree Fock one center treatment
   AEXX    =    0.0000 exact exchange contribution

 Linear response parameters
   LEPSILON=     F    determine dielectric tensor
   LRPA    =     F    only Hartree local field effects (RPA)
   LNABLA  =     F    use nabla operator in PAW spheres
   LVEL    =     F    velocity operator in full k-point grid
   CSHIFT  =0.1000    complex shift for real part using Kramers Kronig
   OMEGAMAX=  -1.0    maximum frequency
   DEG_THRESHOLD= 0.2000000E-02 threshold for treating states as degnerate
   RTIME   =   -0.100 relaxation time in fs
  (WPLASMAI=    0.000 imaginary part of plasma frequency in eV, 0.658/RTIME)
   DFIELD  = 0.0000000 0.0000000 0.0000000 field for delta impulse in time
 
  Optional k-point grid parameters
   KPOINTS_OPT  =      F    use optional k-point grid
   KPOINTS_OPT_MODE=     1    mode for optional k-point grid
 
 Orbital magnetization related:
   ORBITALMAG=     F  switch on orbital magnetization
   LCHIMAG   =     F  perturbation theory with respect to B field
   DQ        =  0.001000  dq finite difference perturbation B field
   LLRAUG    =     F  two centre corrections for induced B field



--------------------------------------------------------------------------------------------------------


 Static calculation
 charge density and potential will be updated during run
 non collinear spin polarized calculation
 Variant of blocked Davidson
 Davidson routine will perform the subspace rotation
 perform sub-space diagonalisation
    after iterative eigenvector-optimisation
 modified Broyden-mixing scheme, WC =      100.0
 initial mixing is a Kerker type mixing with AMIX =  0.4000 and BMIX =      1.0000
 Hartree-type preconditioning will be used
 using additional bands           34
 reciprocal scheme for non local part
 use partial core corrections
 calculate Harris-corrections to forces 
   (improved forces if not selfconsistent)
 use gradient corrections 
 use of overlap-Matrix (Vanderbilt PP)
 Fermi weights with tetrahedron method with Bloechl corrections


--------------------------------------------------------------------------------------------------------


  energy-cutoff  :      273.04
  volume of cell :       37.64
      direct lattice vectors                 reciprocal lattice vectors
     0.000000000  2.660042906  2.660042906    -0.187966893  0.187966893  0.187966893
     2.660042906  0.000000000  2.660042906     0.187966893 -0.187966893  0.187966893
     2.660042906  2.660042906  0.000000000     0.187966893  0.187966893 -0.187966893

  length of vectors
     3.761868754  3.761868754  3.761868754     0.325568209  0.325568209  0.325568209


 
 k-points in units of 2pi/SCALE and weight: Automatically generated mesh            
   0.00000000  0.00000000  0.00000000       0.008
  -0.04604230  0.04604230  0.04604230       0.008
  -0.09208460  0.09208460  0.09208460       0.008
   0.09208460 -0.09208460 -0.09208460       0.008
   0.04604230 -0.04604230 -0.04604230       0.008
   0.04604230 -0.04604230  0.04604230       0.008
  -0.00000000  0.00000000  0.09208460       0.008
  -0.04604230  0.04604230  0.13812691       0.008
   0.13812691 -0.13812691 -0.04604230       0.008
   0.09208460 -0.09208460 -0.00000000       0.008
   0.09208460 -0.09208460  0.09208460       0.008
   0.04604230 -0.04604230  0.13812691       0.008
  -0.00000000  0.00000000  0.18416921       0.008
   0.18416921 -0.18416921  0.00000000       0.008
   0.13812691 -0.13812691  0.04604230       0.008
  -0.09208460  0.09208460 -0.09208460       0.008
  -0.13812691  0.13812691 -0.04604230       0.008
  -0.18416921  0.18416921 -0.00000000       0.008
   0.00000000 -0.00000000 -0.18416921       0.008
  -0.04604230  0.04604230 -0.13812691       0.008
  -0.04604230  0.04604230 -0.04604230       0.008
  -0.09208460  0.09208460  0.00000000       0.008
  -0.13812691  0.13812691  0.04604230       0.008
   0.04604230 -0.04604230 -0.13812691       0.008
   0.00000000 -0.00000000 -0.09208460       0.008
   0.04604230  0.04604230 -0.04604230       0.008
   0.00000000  0.09208460 -0.00000000       0.008
  -0.04604230  0.13812691  0.04604230       0.008
   0.13812691 -0.04604230 -0.13812691       0.008
   0.09208460  0.00000000 -0.09208460       0.008
   0.09208460  0.00000000 -0.00000000       0.008
   0.04604230  0.04604230  0.04604230       0.008
   0.00000000  0.09208460  0.09208460       0.008
   0.18416921 -0.09208460 -0.09208460       0.008
   0.13812691 -0.04604230 -0.04604230       0.008
   0.13812691 -0.04604230  0.04604230       0.008
   0.09208460  0.00000000  0.09208460       0.008
   0.04604230  0.04604230  0.13812691       0.008
   0.23021151 -0.13812691 -0.04604230       0.008
   0.18416921 -0.09208460 -0.00000000       0.008
  -0.04604230  0.13812691 -0.13812691       0.008
  -0.09208460  0.18416921 -0.09208460       0.008
  -0.13812691  0.23021151 -0.04604230       0.008
   0.04604230  0.04604230 -0.23021151       0.008
   0.00000000  0.09208460 -0.18416921       0.008
   0.00000000  0.09208460 -0.09208460       0.008
  -0.04604230  0.13812691 -0.04604230       0.008
  -0.09208460  0.18416921 -0.00000000       0.008
   0.09208460  0.00000000 -0.18416921       0.008
   0.04604230  0.04604230 -0.13812691       0.008
   0.09208460  0.09208460 -0.09208460       0.008
   0.04604230  0.13812691 -0.04604230       0.008
  -0.00000000  0.18416921  0.00000000       0.008
   0.18416921 -0.00000000 -0.18416921       0.008
   0.13812691  0.04604230 -0.13812691       0.008
   0.13812691  0.04604230 -0.04604230       0.008
   0.09208460  0.09208460  0.00000000       0.008
   0.04604230  0.13812691  0.04604230       0.008
   0.23021151 -0.04604230 -0.13812691       0.008
   0.18416921 -0.00000000 -0.09208460       0.008
   0.18416921 -0.00000000  0.00000000       0.008
   0.13812691  0.04604230  0.04604230       0.008
   0.09208460  0.09208460  0.09208460       0.008
   0.27625381 -0.09208460 -0.09208460       0.008
   0.23021151 -0.04604230 -0.04604230       0.008
  -0.00000000  0.18416921 -0.18416921       0.008
  -0.04604230  0.23021151 -0.13812691       0.008
  -0.09208460  0.27625381 -0.09208460       0.008
   0.09208460  0.09208460 -0.27625381       0.008
   0.04604230  0.13812691 -0.23021151       0.008
   0.04604230  0.13812691 -0.13812691       0.008
  -0.00000000  0.18416921 -0.09208460       0.008
  -0.04604230  0.23021151 -0.04604230       0.008
   0.13812691  0.04604230 -0.23021151       0.008
   0.09208460  0.09208460 -0.18416921       0.008
  -0.09208460 -0.09208460  0.09208460       0.008
  -0.13812691 -0.04604230  0.13812691       0.008
  -0.18416921  0.00000000  0.18416921       0.008
   0.00000000 -0.18416921 -0.00000000       0.008
  -0.04604230 -0.13812691  0.04604230       0.008
  -0.04604230 -0.13812691  0.13812691       0.008
  -0.09208460 -0.09208460  0.18416921       0.008
  -0.13812691 -0.04604230  0.23021151       0.008
   0.04604230 -0.23021151  0.04604230       0.008
   0.00000000 -0.18416921  0.09208460       0.008
   0.00000000 -0.18416921  0.18416921       0.008
  -0.04604230 -0.13812691  0.23021151       0.008
  -0.09208460 -0.09208460  0.27625381       0.008
   0.09208460 -0.27625381  0.09208460       0.008
   0.04604230 -0.23021151  0.13812691       0.008
  -0.18416921  0.00000000 -0.00000000       0.008
  -0.23021151  0.04604230  0.04604230       0.008
  -0.27625381  0.09208460  0.09208460       0.008
  -0.09208460 -0.09208460 -0.09208460       0.008
  -0.13812691 -0.04604230 -0.04604230       0.008
  -0.13812691 -0.04604230  0.04604230       0.008
  -0.18416921  0.00000000  0.09208460       0.008
  -0.23021151  0.04604230  0.13812691       0.008
  -0.04604230 -0.13812691 -0.04604230       0.008
  -0.09208460 -0.09208460 -0.00000000       0.008
  -0.04604230 -0.04604230  0.04604230       0.008
  -0.09208460 -0.00000000  0.09208460       0.008
  -0.13812691  0.04604230  0.13812691       0.008
   0.04604230 -0.13812691 -0.04604230       0.008
  -0.00000000 -0.09208460  0.00000000       0.008
  -0.00000000 -0.09208460  0.09208460       0.008
  -0.04604230 -0.04604230  0.13812691       0.008
  -0.09208460 -0.00000000  0.18416921       0.008
   0.09208460 -0.18416921  0.00000000       0.008
   0.04604230 -0.13812691  0.04604230       0.008
   0.04604230 -0.13812691  0.13812691       0.008
  -0.00000000 -0.09208460  0.18416921       0.008
  -0.04604230 -0.04604230  0.23021151       0.008
   0.13812691 -0.23021151  0.04604230       0.008
   0.09208460 -0.18416921  0.09208460       0.008
  -0.13812691  0.04604230 -0.04604230       0.008
  -0.18416921  0.09208460  0.00000000       0.008
  -0.23021151  0.13812691  0.04604230       0.008
  -0.04604230 -0.04604230 -0.13812691       0.008
  -0.09208460 -0.00000000 -0.09208460       0.008
  -0.09208460 -0.00000000  0.00000000       0.008
  -0.13812691  0.04604230  0.04604230       0.008
  -0.18416921  0.09208460  0.09208460       0.008
  -0.00000000 -0.09208460 -0.09208460       0.008
  -0.04604230 -0.04604230 -0.04604230       0.008
 
 k-points in reciprocal lattice and weights: Automatically generated mesh            
   0.00000000  0.00000000  0.00000000       0.008
   0.20000000  0.00000000 -0.00000000       0.008
   0.40000000 -0.00000000  0.00000000       0.008
  -0.40000000  0.00000000 -0.00000000       0.008
  -0.20000000 -0.00000000  0.00000000       0.008
   0.00000000  0.20000000  0.00000000       0.008
   0.20000000  0.20000000 -0.00000000       0.008
   0.40000000  0.20000000  0.00000000       0.008
  -0.40000000  0.20000000 -0.00000000       0.008
  -0.20000000  0.20000000  0.00000000       0.008
  -0.00000000  0.40000000 -0.00000000       0.008
   0.20000000  0.40000000 -0.00000000       0.008
   0.40000000  0.40000000 -0.00000000       0.008
  -0.40000000  0.40000000 -0.00000000       0.008
  -0.20000000  0.40000000 -0.00000000       0.008
   0.00000000 -0.40000000  0.00000000       0.008
   0.20000000 -0.40000000  0.00000000       0.008
   0.40000000 -0.40000000  0.00000000       0.008
  -0.40000000 -0.40000000  0.00000000       0.008
  -0.20000000 -0.40000000  0.00000000       0.008
  -0.00000000 -0.20000000 -0.00000000       0.008
   0.20000000 -0.20000000 -0.00000000       0.008
   0.40000000 -0.20000000  0.00000000       0.008
  -0.40000000 -0.20000000 -0.00000000       0.008
  -0.20000000 -0.20000000  0.00000000       0.008
  -0.00000000 -0.00000000  0.20000000       0.008
   0.20000000  0.00000000  0.20000000       0.008
   0.40000000 -0.00000000  0.20000000       0.008
  -0.40000000  0.00000000  0.20000000       0.008
  -0.20000000 -0.00000000  0.20000000       0.008
   0.00000000  0.20000000  0.20000000       0.008
   0.20000000  0.20000000  0.20000000       0.008
   0.40000000  0.20000000  0.20000000       0.008
  -0.40000000  0.20000000  0.20000000       0.008
  -0.20000000  0.20000000  0.20000000       0.008
  -0.00000000  0.40000000  0.20000000       0.008
   0.20000000  0.40000000  0.20000000       0.008
   0.40000000  0.40000000  0.20000000       0.008
  -0.40000000  0.40000000  0.20000000       0.008
  -0.20000000  0.40000000  0.20000000       0.008
   0.00000000 -0.40000000  0.20000000       0.008
   0.20000000 -0.40000000  0.20000000       0.008
   0.40000000 -0.40000000  0.20000000       0.008
  -0.40000000 -0.40000000  0.20000000       0.008
  -0.20000000 -0.40000000  0.20000000       0.008
  -0.00000000 -0.20000000  0.20000000       0.008
   0.20000000 -0.20000000  0.20000000       0.008
   0.40000000 -0.20000000  0.20000000       0.008
  -0.40000000 -0.20000000  0.20000000       0.008
  -0.20000000 -0.20000000  0.20000000       0.008
   0.00000000  0.00000000  0.40000000       0.008
   0.20000000  0.00000000  0.40000000       0.008
   0.40000000  0.00000000  0.40000000       0.008
  -0.40000000  0.00000000  0.40000000       0.008
  -0.20000000  0.00000000  0.40000000       0.008
   0.00000000  0.20000000  0.40000000       0.008
   0.20000000  0.20000000  0.40000000       0.008
   0.40000000  0.20000000  0.40000000       0.008
  -0.40000000  0.20000000  0.40000000       0.008
  -0.20000000  0.20000000  0.40000000       0.008
   0.00000000  0.40000000  0.40000000       0.008
   0.20000000  0.40000000  0.40000000       0.008
   0.40000000  0.40000000  0.40000000       0.008
  -0.40000000  0.40000000  0.40000000       0.008
  -0.20000000  0.40000000  0.40000000       0.008
   0.00000000 -0.40000000  0.40000000       0.008
   0.20000000 -0.40000000  0.40000000       0.008
   0.40000000 -0.40000000  0.40000000       0.008
  -0.40000000 -0.40000000  0.40000000       0.008
  -0.20000000 -0.40000000  0.40000000       0.008
   0.00000000 -0.20000000  0.40000000       0.008
   0.20000000 -0.20000000  0.40000000       0.008
   0.40000000 -0.20000000  0.40000000       0.008
  -0.40000000 -0.20000000  0.40000000       0.008
  -0.20000000 -0.20000000  0.40000000       0.008
  -0.00000000 -0.00000000 -0.40000000       0.008
   0.20000000 -0.00000000 -0.40000000       0.008
   0.40000000 -0.00000000 -0.40000000       0.008
  -0.40000000 -0.00000000 -0.40000000       0.008
  -0.20000000 -0.00000000 -0.40000000       0.008
  -0.00000000  0.20000000 -0.40000000       0.008
   0.20000000  0.20000000 -0.40000000       0.008
   0.40000000  0.20000000 -0.40000000       0.008
  -0.40000000  0.20000000 -0.40000000       0.008
  -0.20000000  0.20000000 -0.40000000       0.008
  -0.00000000  0.40000000 -0.40000000       0.008
   0.20000000  0.40000000 -0.40000000       0.008
   0.40000000  0.40000000 -0.40000000       0.008
  -0.40000000  0.40000000 -0.40000000       0.008
  -0.20000000  0.40000000 -0.40000000       0.008
  -0.00000000 -0.40000000 -0.40000000       0.008
   0.20000000 -0.40000000 -0.40000000       0.008
   0.40000000 -0.40000000 -0.40000000       0.008
  -0.40000000 -0.40000000 -0.40000000       0.008
  -0.20000000 -0.40000000 -0.40000000       0.008
  -0.00000000 -0.20000000 -0.40000000       0.008
   0.20000000 -0.20000000 -0.40000000       0.008
   0.40000000 -0.20000000 -0.40000000       0.008
  -0.40000000 -0.20000000 -0.40000000       0.008
  -0.20000000 -0.20000000 -0.40000000       0.008
   0.00000000  0.00000000 -0.20000000       0.008
   0.20000000  0.00000000 -0.20000000       0.008
   0.40000000 -0.00000000 -0.20000000       0.008
  -0.40000000  0.00000000 -0.20000000       0.008
  -0.20000000 -0.00000000 -0.20000000       0.008
   0.00000000  0.20000000 -0.20000000       0.008
   0.20000000  0.20000000 -0.20000000       0.008
   0.40000000  0.20000000 -0.20000000       0.008
  -0.40000000  0.20000000 -0.20000000       0.008
  -0.20000000  0.20000000 -0.20000000       0.008
  -0.00000000  0.40000000 -0.20000000       0.008
   0.20000000  0.40000000 -0.20000000       0.008
   0.40000000  0.40000000 -0.20000000       0.008
  -0.40000000  0.40000000 -0.20000000       0.008
  -0.20000000  0.40000000 -0.20000000       0.008
   0.00000000 -0.40000000 -0.20000000       0.008
   0.20000000 -0.40000000 -0.20000000       0.008
   0.40000000 -0.40000000 -0.20000000       0.008
  -0.40000000 -0.40000000 -0.20000000       0.008
  -0.20000000 -0.40000000 -0.20000000       0.008
  -0.00000000 -0.20000000 -0.20000000       0.008
   0.20000000 -0.20000000 -0.20000000       0.008
   0.40000000 -0.20000000 -0.20000000       0.008
  -0.40000000 -0.20000000 -0.20000000       0.008
  -0.20000000 -0.20000000 -0.20000000       0.008
 
 position of ions in fractional coordinates (direct lattice) 
   0.00000000  0.00000000  0.00000000
 
 position of ions in cartesian coordinates  (Angst):
   0.00000000  0.00000000  0.00000000
 
 Euler angles ALPHA=     0.0000000  BETA=     0.0000000

 transformation matrix from SAXIS to cartesian coordinates
 ---------------------------------------------------------
     1.0000000 m_x     0.0000000 m_y     0.0000000 m_z
     0.0000000 m_x     1.0000000 m_y     0.0000000 m_z
     0.0000000 m_x     0.0000000 m_y     1.0000000 m_z

 transformation matrix from cartesian coordinates to SAXIS
 ---------------------------------------------------------
     1.0000000 m_x     0.0000000 m_y     0.0000000 m_z
     0.0000000 m_x     1.0000000 m_y     0.0000000 m_z
     0.0000000 m_x     0.0000000 m_y     1.0000000 m_z




--------------------------------------------------------------------------------------------------------


 k-point   1 :   0.0000 0.0000 0.0000  plane waves:     774
 k-point   2 :   0.2000 0.0000-0.0000  plane waves:     760
 k-point   3 :   0.4000-0.0000 0.0000  plane waves:     772
 k-point   4 :  -0.4000 0.0000-0.0000  plane waves:     772
 k-point   5 :  -0.2000-0.0000 0.0000  plane waves:     760
 k-point   6 :   0.0000 0.2000 0.0000  plane waves:     760
 k-point   7 :   0.2000 0.2000-0.0000  plane waves:     758
 k-point   8 :   0.4000 0.2000 0.0000  plane waves:     768
 k-point   9 :  -0.4000 0.2000-0.0000  plane waves:     778
 k-point  10 :  -0.2000 0.2000 0.0000  plane waves:     782
 k-point  11 :  -0.0000 0.4000-0.0000  plane waves:     772
 k-point  12 :   0.2000 0.4000-0.0000  plane waves:     768
 k-point  13 :   0.4000 0.4000-0.0000  plane waves:     766
 k-point  14 :  -0.4000 0.4000-0.0000  plane waves:     770
 k-point  15 :  -0.2000 0.4000-0.0000  plane waves:     778
 k-point  16 :   0.0000-0.4000 0.0000  plane waves:     772
 k-point  17 :   0.2000-0.4000 0.0000  plane waves:     778
 k-point  18 :   0.4000-0.4000 0.0000  plane waves:     770
 k-point  19 :  -0.4000-0.4000 0.0000  plane waves:     766
 k-point  20 :  -0.2000-0.4000 0.0000  plane waves:     768
 k-point  21 :  -0.0000-0.2000-0.0000  plane waves:     760
 k-point  22 :   0.2000-0.2000-0.0000  plane waves:     782
 k-point  23 :   0.4000-0.2000 0.0000  plane waves:     778
 k-point  24 :  -0.4000-0.2000-0.0000  plane waves:     768
 k-point  25 :  -0.2000-0.2000 0.0000  plane waves:     758
 k-point  26 :  -0.0000-0.0000 0.2000  plane waves:     760
 k-point  27 :   0.2000 0.0000 0.2000  plane waves:     758
 k-point  28 :   0.4000-0.0000 0.2000  plane waves:     768
 k-point  29 :  -0.4000 0.0000 0.2000  plane waves:     778
 k-point  30 :  -0.2000-0.0000 0.2000  plane waves:     782
 k-point  31 :   0.0000 0.2000 0.2000  plane waves:     758
 k-point  32 :   0.2000 0.2000 0.2000  plane waves:     760
 k-point  33 :   0.4000 0.2000 0.2000  plane waves:     782
 k-point  34 :  -0.4000 0.2000 0.2000  plane waves:     778
 k-point  35 :  -0.2000 0.2000 0.2000  plane waves:     768
 k-point  36 :  -0.0000 0.4000 0.2000  plane waves:     768
 k-point  37 :   0.2000 0.4000 0.2000  plane waves:     782
 k-point  38 :   0.4000 0.4000 0.2000  plane waves:     768
 k-point  39 :  -0.4000 0.4000 0.2000  plane waves:     784
 k-point  40 :  -0.2000 0.4000 0.2000  plane waves:     784
 k-point  41 :   0.0000-0.4000 0.2000  plane waves:     778
 k-point  42 :   0.2000-0.4000 0.2000  plane waves:     778
 k-point  43 :   0.4000-0.4000 0.2000  plane waves:     784
 k-point  44 :  -0.4000-0.4000 0.2000  plane waves:     770
 k-point  45 :  -0.2000-0.4000 0.2000  plane waves:     784
 k-point  46 :  -0.0000-0.2000 0.2000  plane waves:     782
 k-point  47 :   0.2000-0.2000 0.2000  plane waves:     768
 k-point  48 :   0.4000-0.2000 0.2000  plane waves:     784
 k-point  49 :  -0.4000-0.2000 0.2000  plane waves:     784
 k-point  50 :  -0.2000-0.2000 0.2000  plane waves:     768
 k-point  51 :   0.0000 0.0000 0.4000  plane waves:     772
 k-point  52 :   0.2000 0.0000 0.4000  plane waves:     768
 k-point  53 :   0.4000 0.0000 0.4000  plane waves:     766
 k-point  54 :  -0.4000 0.0000 0.4000  plane waves:     770
 k-point  55 :  -0.2000 0.0000 0.4000  plane waves:     778
 k-point  56 :   0.0000 0.2000 0.4000  plane waves:     768
 k-point  57 :   0.2000 0.2000 0.4000  plane waves:     782
 k-point  58 :   0.4000 0.2000 0.4000  plane waves:     768
 k-point  59 :  -0.4000 0.2000 0.4000  plane waves:     784
 k-point  60 :  -0.2000 0.2000 0.4000  plane waves:     784
 k-point  61 :   0.0000 0.4000 0.4000  plane waves:     766
 k-point  62 :   0.2000 0.4000 0.4000  plane waves:     768
 k-point  63 :   0.4000 0.4000 0.4000  plane waves:     772
 k-point  64 :  -0.4000 0.4000 0.4000  plane waves:     778
 k-point  65 :  -0.2000 0.4000 0.4000  plane waves:     770
 k-point  66 :   0.0000-0.4000 0.4000  plane waves:     770
 k-point  67 :   0.2000-0.4000 0.4000  plane waves:     784
 k-point  68 :   0.4000-0.4000 0.4000  plane waves:     778
 k-point  69 :  -0.4000-0.4000 0.4000  plane waves:     778
 k-point  70 :  -0.2000-0.4000 0.4000  plane waves:     784
 k-point  71 :   0.0000-0.2000 0.4000  plane waves:     778
 k-point  72 :   0.2000-0.2000 0.4000  plane waves:     784
 k-point  73 :   0.4000-0.2000 0.4000  plane waves:     770
 k-point  74 :  -0.4000-0.2000 0.4000  plane waves:     784
 k-point  75 :  -0.2000-0.2000 0.4000  plane waves:     778
 k-point  76 :  -0.0000-0.0000-0.4000  plane waves:     772
 k-point  77 :   0.2000-0.0000-0.4000  plane waves:     778
 k-point  78 :   0.4000-0.0000-0.4000  plane waves:     770
 k-point  79 :  -0.4000-0.0000-0.4000  plane waves:     766
 k-point  80 :  -0.2000-0.0000-0.4000  plane waves:     768
 k-point  81 :  -0.0000 0.2000-0.4000  plane waves:     778
 k-point  82 :   0.2000 0.2000-0.4000  plane waves:     778
 k-point  83 :   0.4000 0.2000-0.4000  plane waves:     784
 k-point  84 :  -0.4000 0.2000-0.4000  plane waves:     770
 k-point  85 :  -0.2000 0.2000-0.4000  plane waves:     784
 k-point  86 :  -0.0000 0.4000-0.4000  plane waves:     770
 k-point  87 :   0.2000 0.4000-0.4000  plane waves:     784
 k-point  88 :   0.4000 0.4000-0.4000  plane waves:     778
 k-point  89 :  -0.4000 0.4000-0.4000  plane waves:     778
 k-point  90 :  -0.2000 0.4000-0.4000  plane waves:     784
 k-point  91 :  -0.0000-0.4000-0.4000  plane waves:     766
 k-point  92 :   0.2000-0.4000-0.4000  plane waves:     770
 k-point  93 :   0.4000-0.4000-0.4000  plane waves:     778
 k-point  94 :  -0.4000-0.4000-0.4000  plane waves:     772
 k-point  95 :  -0.2000-0.4000-0.4000  plane waves:     768
 k-point  96 :  -0.0000-0.2000-0.4000  plane waves:     768
 k-point  97 :   0.2000-0.2000-0.4000  plane waves:     784
 k-point  98 :   0.4000-0.2000-0.4000  plane waves:     784
 k-point  99 :  -0.4000-0.2000-0.4000  plane waves:     768
 k-point 100 :  -0.2000-0.2000-0.4000  plane waves:     782
 k-point 101 :   0.0000 0.0000-0.2000  plane waves:     760
 k-point 102 :   0.2000 0.0000-0.2000  plane waves:     782
 k-point 103 :   0.4000-0.0000-0.2000  plane waves:     778
 k-point 104 :  -0.4000 0.0000-0.2000  plane waves:     768
 k-point 105 :  -0.2000-0.0000-0.2000  plane waves:     758
 k-point 106 :   0.0000 0.2000-0.2000  plane waves:     782
 k-point 107 :   0.2000 0.2000-0.2000  plane waves:     768
 k-point 108 :   0.4000 0.2000-0.2000  plane waves:     784
 k-point 109 :  -0.4000 0.2000-0.2000  plane waves:     784
 k-point 110 :  -0.2000 0.2000-0.2000  plane waves:     768
 k-point 111 :  -0.0000 0.4000-0.2000  plane waves:     778
 k-point 112 :   0.2000 0.4000-0.2000  plane waves:     784
 k-point 113 :   0.4000 0.4000-0.2000  plane waves:     770
 k-point 114 :  -0.4000 0.4000-0.2000  plane waves:     784
 k-point 115 :  -0.2000 0.4000-0.2000  plane waves:     778
 k-point 116 :   0.0000-0.4000-0.2000  plane waves:     768
 k-point 117 :   0.2000-0.4000-0.2000  plane waves:     784
 k-point 118 :   0.4000-0.4000-0.2000  plane waves:     784
 k-point 119 :  -0.4000-0.4000-0.2000  plane waves:     768
 k-point 120 :  -0.2000-0.4000-0.2000  plane waves:     782
 k-point 121 :  -0.0000-0.2000-0.2000  plane waves:     758
 k-point 122 :   0.2000-0.2000-0.2000  plane waves:     768
 k-point 123 :   0.4000-0.2000-0.2000  plane waves:     778
 k-point 124 :  -0.4000-0.2000-0.2000  plane waves:     782
 k-point 125 :  -0.2000-0.2000-0.2000  plane waves:     760

 maximum and minimum number of plane-waves per node :       784      758

 maximum number of plane-waves:       784
 maximum index in each direction: 
   IXMAX=    5   IYMAX=    5   IZMAX=    5
   IXMIN=   -5   IYMIN=   -5   IZMIN=   -5


 serial   3D FFT for wavefunctions
 parallel 3D FFT for charge:
    minimum data exchange during FFTs selected (reduces bandwidth)


 total amount of memory used by VASP MPI-rank0    47666. kBytes
=======================================================================

   base      :      30000. kBytes
   nonl-proj :      12806. kBytes
   fftplans  :        161. kBytes
   grid      :        983. kBytes
   one-center:        196. kBytes
   wavefun   :       3520. kBytes
 
     INWAV:  cpu time      0.0000: real time      0.0000
 Broyden mixing: mesh for mixing (old mesh)
   NGX = 11   NGY = 11   NGZ = 11
  (NGX  = 32   NGY  = 32   NGZ  = 32)
  gives a total of   1331 points

 initial charge density was supplied:
 charge density of overlapping atoms calculated
 number of electron      12.0000000 magnetization       0.0000000      0.0000000      0.0000000
 keeping initial charge density in first step


--------------------------------------------------------------------------------------------------------


 Maximum index for augmentation-charges          349 (set IRDMAX)


--------------------------------------------------------------------------------------------------------


 First call to EWALD:  gamma=   0.529
 Maximum number of real-space cells 3x 3x 3
 Maximum number of reciprocal cells 3x 3x 3

    FEWALD:  cpu time      0.0016: real time      0.0019


--------------------------------------- Iteration      1(   1)  ---------------------------------------


    POTLOK:  cpu time      0.0075: real time      0.0091
    SETDIJ:  cpu time      0.0124: real time      0.0123
     EDDAV:  cpu time      1.3815: real time      1.3815
 BZINTS: Fermi energy:    8.488835;   12.000000 electrons
         Band energy:-0.362595E+02;  BLOECHL correction:   -0.056468
       DOS:  cpu time      0.1531: real time      0.1533
    --------------------------------------------
      LOOP:  cpu time      1.5545: real time      1.5562

 eigenvalue-minimisations  : 10200
 total energy-change (2. order) : 0.5799603E+02  (-0.3406208E+03)
 number of electron      12.0000000 magnetization       0.0000000      0.0000000      0.0000000
 augmentation part       12.0000000 magnetization       0.0000000      0.0000000      0.0000000

 Free energy of the ion-electron system (eV)
  ---------------------------------------------------
  alpha Z        PSCENC =        55.91029548
  Ewald energy   TEWEN  =      -893.50339594
  -Hartree energ DENC   =      -160.09141973
  -exchange      EXHF   =         0.00000000
  -V(xc)+E(xc)   XCENC  =         4.68917883
  PAW double counting   =       850.84006597     -826.59438634
  entropy T*S    EENTRO =         0.00000000
  eigenvalues    EBANDS =       -36.25946490
  atomic energy  EATOM  =      1063.00515966
  Solvation  Ediel_sol  =         0.00000000
  ---------------------------------------------------
  free energy    TOTEN  =        57.99603303 eV

  energy without entropy =       57.99603303  energy(sigma->0) =       57.99603303


--------------------------------------------------------------------------------------------------------




--------------------------------------- Iteration      1(   2)  ---------------------------------------


     EDDAV:  cpu time      1.8959: real time      1.8954
 BZINTS: Fermi energy:    6.643616;   12.000000 electrons
         Band energy:-0.972187E+02;  BLOECHL correction:   -0.031763
       DOS:  cpu time      0.1516: real time      0.1516
    --------------------------------------------
      LOOP:  cpu time      2.0476: real time      2.0470

 eigenvalue-minimisations  : 13400
 total energy-change (2. order) :-0.6095926E+02  (-0.5543872E+02)
 number of electron      12.0000000 magnetization       0.0000000      0.0000000      0.0000000
 augmentation part       12.0000000 magnetization       0.0000000      0.0000000      0.0000000

 Free energy of the ion-electron system (eV)
  ---------------------------------------------------
  alpha Z        PSCENC =        55.91029548
  Ewald energy   TEWEN  =      -893.50339594
  -Hartree energ DENC   =      -160.09141973
  -exchange      EXHF   =         0.00000000
  -V(xc)+E(xc)   XCENC  =         4.68917883
  PAW double counting   =       850.84006597     -826.59438634
  entropy T*S    EENTRO =         0.00000000
  eigenvalues    EBANDS =       -97.21872435
  atomic energy  EATOM  =      1063.00515966
  Solvation  Ediel_sol  =         0.00000000
  ---------------------------------------------------
  free energy    TOTEN  =        -2.96322642 eV

  energy without entropy =       -2.96322642  energy(sigma->0) =       -2.96322642


--------------------------------------------------------------------------------------------------------




--------------------------------------- Iteration      1(   3)  ---------------------------------------


     EDDAV:  cpu time      1.4904: real time      1.4900
 BZINTS: Fermi energy:    6.522724;   12.000000 electrons
         Band energy:-0.100251E+03;  BLOECHL correction:   -0.032149
       DOS:  cpu time      0.1514: real time      0.1513
    --------------------------------------------
      LOOP:  cpu time      1.6417: real time      1.6414

 eigenvalue-minimisations  : 10860
 total energy-change (2. order) :-0.3032130E+01  (-0.3018112E+01)
 number of electron      12.0000000 magnetization       0.0000000      0.0000000      0.0000000
 augmentation part       12.0000000 magnetization       0.0000000      0.0000000      0.0000000

 Free energy of the ion-electron system (eV)
  ---------------------------------------------------
  alpha Z        PSCENC =        55.91029548
  Ewald energy   TEWEN  =      -893.50339594
  -Hartree energ DENC   =      -160.09141973
  -exchange      EXHF   =         0.00000000
  -V(xc)+E(xc)   XCENC  =         4.68917883
  PAW double counting   =       850.84006597     -826.59438634
  entropy T*S    EENTRO =         0.00000000
  eigenvalues    EBANDS =      -100.25085470
  atomic energy  EATOM  =      1063.00515966
  Solvation  Ediel_sol  =         0.00000000
  ---------------------------------------------------
  free energy    TOTEN  =        -5.99535677 eV

  energy without entropy =       -5.99535677  energy(sigma->0) =       -5.99535677


--------------------------------------------------------------------------------------------------------




--------------------------------------- Iteration      1(   4)  ---------------------------------------


     EDDAV:  cpu time      2.8181: real time      2.8170
 BZINTS: Fermi energy:    6.518828;   12.000000 electrons
         Band energy:-0.100452E+03;  BLOECHL correction:   -0.032654
       DOS:  cpu time      0.1499: real time      0.1499
    --------------------------------------------
      LOOP:  cpu time      2.9680: real time      2.9669

 eigenvalue-minimisations  : 18760
 total energy-change (2. order) :-0.2013748E+00  (-0.2006960E+00)
 number of electron      12.0000000 magnetization       0.0000000      0.0000000      0.0000000
 augmentation part       12.0000000 magnetization       0.0000000      0.0000000      0.0000000

 Free energy of the ion-electron system (eV)
  ---------------------------------------------------
  alpha Z        PSCENC =        55.91029548
  Ewald energy   TEWEN  =      -893.50339594
  -Hartree energ DENC   =      -160.09141973
  -exchange      EXHF   =         0.00000000
  -V(xc)+E(xc)   XCENC  =         4.68917883
  PAW double counting   =       850.84006597     -826.59438634
  entropy T*S    EENTRO =         0.00000000
  eigenvalues    EBANDS =      -100.45222946
  atomic energy  EATOM  =      1063.00515966
  Solvation  Ediel_sol  =         0.00000000
  ---------------------------------------------------
  free energy    TOTEN  =        -6.19673153 eV

  energy without entropy =       -6.19673153  energy(sigma->0) =       -6.19673153


--------------------------------------------------------------------------------------------------------




--------------------------------------- Iteration      1(   5)  ---------------------------------------


     EDDAV:  cpu time      1.4831: real time      1.4828
 BZINTS: Fermi energy:    6.518824;   12.000000 electrons
         Band energy:-0.100453E+03;  BLOECHL correction:   -0.032655
       DOS:  cpu time      0.1506: real time      0.1506

 optimized coefficients for linear combined projectors, energy window       0.00     14.00
 species Ce NT=   1 L=   0     0.252    -0.352
 species Ce NT=   1 L=   1     0.882    -0.367
 species Ce NT=   1 L=   2     0.735    -0.860
 species Ce NT=   1 L=   3     0.989     0.989



 total charge

# of ion       s       p       d       f       tot
--------------------------------------------------
    1        2.060   5.650   1.075   0.506   9.291



 magnetization (x)

# of ion       s       p       d       f       tot
--------------------------------------------------
    1       -0.000   0.000  -0.000  -0.000  -0.000



 magnetization (y)

# of ion       s       p       d       f       tot
--------------------------------------------------
    1       -0.000  -0.000   0.000  -0.000  -0.000



 magnetization (z)

# of ion       s       p       d       f       tot
--------------------------------------------------
    1       -0.000  -0.000   0.000   0.000  -0.000
 
    CHARGE:  cpu time      0.0271: real time      0.0271
    MIXING:  cpu time      0.0010: real time      0.0008
    --------------------------------------------
      LOOP:  cpu time      1.6618: real time      1.6613

 eigenvalue-minimisations  : 10800
 total energy-change (2. order) :-0.8736850E-03  (-0.8733473E-03)
 number of electron      12.0000012 magnetization       0.0000000      0.0000001     -0.0000000
 augmentation part       -1.6610734 magnetization      -0.0003616     -0.0000030      0.0000033

 Broyden mixing:
  rms(total) = 0.46941E+00    rms(broyden)= 0.46902E+00
  rms(prec ) = 0.14013E+01
  weight for this iteration     100.00

 Free energy of the ion-electron system (eV)
  ---------------------------------------------------
  alpha Z        PSCENC =        55.91029548
  Ewald energy   TEWEN  =      -893.50339594
  -Hartree energ DENC   =      -160.09141973
  -exchange      EXHF   =         0.00000000
  -V(xc)+E(xc)   XCENC  =         4.68917883
  PAW double counting   =       850.84006597     -826.59438634
  entropy T*S    EENTRO =         0.00000000
  eigenvalues    EBANDS =      -100.45310315
  atomic energy  EATOM  =      1063.00515966
  Solvation  Ediel_sol  =         0.00000000
  ---------------------------------------------------
  free energy    TOTEN  =        -6.19760521 eV

  energy without entropy =       -6.19760521  energy(sigma->0) =       -6.19760521


--------------------------------------------------------------------------------------------------------




--------------------------------------- Iteration      1(   6)  ---------------------------------------


    POTLOK:  cpu time      0.0068: real time      0.0073
    SETDIJ:  cpu time      0.0108: real time      0.0108
     EDDAV:  cpu time      1.3404: real time      1.3398
 BZINTS: Fermi energy:    4.685105;   12.000000 electrons
         Band energy:-0.112399E+03;  BLOECHL correction:   -0.003538
       DOS:  cpu time      0.1527: real time      0.1526
    CHARGE:  cpu time      0.0186: real time      0.0186
    MIXING:  cpu time      0.0006: real time      0.0006
    --------------------------------------------
      LOOP:  cpu time      1.5299: real time      1.5298

 eigenvalue-minimisations  : 10000
 total energy-change (2. order) :-0.1284988E+01  (-0.1955875E+01)
 number of electron      12.0000001 magnetization       0.0017690      0.0000446      0.0000047
 augmentation part        0.6000522 magnetization       0.0004879      0.0000309      0.0000127

 Broyden mixing:
  rms(total) = 0.14421E+01    rms(broyden)= 0.14421E+01
  rms(prec ) = 0.48070E+01
  weight for this iteration     100.00

 eigenvalues of (default mixing * dielectric matrix)
  average eigenvalue GAMMA=   0.2361
  0.2361

 Free energy of the ion-electron system (eV)
  ---------------------------------------------------
  alpha Z        PSCENC =        55.91029548
  Ewald energy   TEWEN  =      -893.50339594
  -Hartree energ DENC   =      -150.00744061
  -exchange      EXHF   =         0.00000000
  -V(xc)+E(xc)   XCENC  =         4.54083505
  PAW double counting   =       834.25086240     -809.28036977
  entropy T*S    EENTRO =         0.00000000
  eigenvalues    EBANDS =      -112.39853933
  atomic energy  EATOM  =      1063.00515966
  Solvation  Ediel_sol  =         0.00000000
  ---------------------------------------------------
  free energy    TOTEN  =        -7.48259306 eV

  energy without entropy =       -7.48259306  energy(sigma->0) =       -7.48259306


--------------------------------------------------------------------------------------------------------




--------------------------------------- Iteration      1(   7)  ---------------------------------------


    POTLOK:  cpu time      0.0066: real time      0.0066
    SETDIJ:  cpu time      0.0098: real time      0.0098
     EDDAV:  cpu time      1.5271: real time      1.5267
 BZINTS: Fermi energy:    6.369548;   12.000000 electrons
         Band energy:-0.101742E+03;  BLOECHL correction:   -0.015596
       DOS:  cpu time      0.1491: real time      0.1490
    CHARGE:  cpu time      0.0184: real time      0.0184
    MIXING:  cpu time      0.0010: real time      0.0010
    --------------------------------------------
      LOOP:  cpu time      1.7120: real time      1.7115

 eigenvalue-minimisations  : 11240
 total energy-change (2. order) : 0.1434587E+01  (-0.7010572E+00)
 number of electron      12.0000012 magnetization      -0.0022684     -0.0001891     -0.0001367
 augmentation part       -1.5463172 magnetization      -0.0024664     -0.0001645     -0.0001081

 Broyden mixing:
  rms(total) = 0.29099E+00    rms(broyden)= 0.29089E+00
  rms(prec ) = 0.90793E+00
  weight for this iteration     100.00

 eigenvalues of (default mixing * dielectric matrix)
  average eigenvalue GAMMA=   0.7845
  1.3791  0.1900

 Free energy of the ion-electron system (eV)
  ---------------------------------------------------
  alpha Z        PSCENC =        55.91029548
  Ewald energy   TEWEN  =      -893.50339594
  -Hartree energ DENC   =      -158.11279388
  -exchange      EXHF   =         0.00000000
  -V(xc)+E(xc)   XCENC  =         4.69719564
  PAW double counting   =       850.27394962     -826.57656276
  entropy T*S    EENTRO =         0.00000000
  eigenvalues    EBANDS =      -101.74185393
  atomic energy  EATOM  =      1063.00515966
  Solvation  Ediel_sol  =         0.00000000
  ---------------------------------------------------
  free energy    TOTEN  =        -6.04800610 eV

  energy without entropy =       -6.04800610  energy(sigma->0) =       -6.04800610


--------------------------------------------------------------------------------------------------------




--------------------------------------- Iteration      1(   8)  ---------------------------------------


    POTLOK:  cpu time      0.0071: real time      0.0077
    SETDIJ:  cpu time      0.0104: real time      0.0104
     EDDAV:  cpu time      1.8023: real time      1.8016
 BZINTS: Fermi energy:    6.164865;   12.000000 electrons
         Band energy:-0.103243E+03;  BLOECHL correction:   -0.003843
       DOS:  cpu time      0.1496: real time      0.1495
    CHARGE:  cpu time      0.0169: real time      0.0169
    MIXING:  cpu time      0.0007: real time      0.0007
    --------------------------------------------
      LOOP:  cpu time      1.9871: real time      1.9868

 eigenvalue-minimisations  : 13180
 total energy-change (2. order) : 0.8618655E-01  (-0.1539704E-01)
 number of electron      12.0000012 magnetization      -0.0064127     -0.0004207     -0.0002420
 augmentation part       -1.3557378 magnetization      -0.0049421     -0.0003253     -0.0001920

 Broyden mixing:
  rms(total) = 0.96207E-01    rms(broyden)= 0.96025E-01
  rms(prec ) = 0.29385E+00
  weight for this iteration     100.00

 eigenvalues of (default mixing * dielectric matrix)
  average eigenvalue GAMMA=   0.8208
  1.5740  0.1935  0.6948

 Free energy of the ion-electron system (eV)
  ---------------------------------------------------
  alpha Z        PSCENC =        55.91029548
  Ewald energy   TEWEN  =      -893.50339594
  -Hartree energ DENC   =      -156.29263830
  -exchange      EXHF   =         0.00000000
  -V(xc)+E(xc)   XCENC  =         4.68854389
  PAW double counting   =       849.92445972     -826.45077401
  entropy T*S    EENTRO =         0.00000000
  eigenvalues    EBANDS =      -103.24347006
  atomic energy  EATOM  =      1063.00515966
  Solvation  Ediel_sol  =         0.00000000
  ---------------------------------------------------
  free energy    TOTEN  =        -5.96181956 eV

  energy without entropy =       -5.96181956  energy(sigma->0) =       -5.96181956


--------------------------------------------------------------------------------------------------------




--------------------------------------- Iteration      1(   9)  ---------------------------------------


    POTLOK:  cpu time      0.0065: real time      0.0065
    SETDIJ:  cpu time      0.0098: real time      0.0098
     EDDAV:  cpu time      2.7870: real time      2.7859
 BZINTS: Fermi energy:    6.092827;   12.000000 electrons
         Band energy:-0.103696E+03;  BLOECHL correction:   -0.002753
       DOS:  cpu time      0.1497: real time      0.1496
    CHARGE:  cpu time      0.0170: real time      0.0170
    MIXING:  cpu time      0.0008: real time      0.0008
    --------------------------------------------
      LOOP:  cpu time      2.9708: real time      2.9696

 eigenvalue-minimisations  : 18680
 total energy-change (2. order) : 0.7926954E-02  (-0.1546312E-02)
 number of electron      12.0000012 magnetization      -0.0119005     -0.0008848     -0.0005641
 augmentation part       -1.2999471 magnetization      -0.0106249     -0.0007755     -0.0004797

 Broyden mixing:
  rms(total) = 0.42595E-01    rms(broyden)= 0.42534E-01
  rms(prec ) = 0.10530E+00
  weight for this iteration     100.00

 eigenvalues of (default mixing * dielectric matrix)
  average eigenvalue GAMMA=   1.4816
  2.5451  2.5451  0.1931  0.6430

 Free energy of the ion-electron system (eV)
  ---------------------------------------------------
  alpha Z        PSCENC =        55.91029548
  Ewald energy   TEWEN  =      -893.50339594
  -Hartree energ DENC   =      -155.82604853
  -exchange      EXHF   =         0.00000000
  -V(xc)+E(xc)   XCENC  =         4.68365614
  PAW double counting   =       850.29098474     -826.81865305
  entropy T*S    EENTRO =         0.00000000
  eigenvalues    EBANDS =      -103.69589110
  atomic energy  EATOM  =      1063.00515966
  Solvation  Ediel_sol  =         0.00000000
  ---------------------------------------------------
  free energy    TOTEN  =        -5.95389260 eV

  energy without entropy =       -5.95389260  energy(sigma->0) =       -5.95389260


--------------------------------------------------------------------------------------------------------




--------------------------------------- Iteration      1(  10)  ---------------------------------------


    POTLOK:  cpu time      0.0065: real time      0.0065
    SETDIJ:  cpu time      0.0098: real time      0.0098
     EDDAV:  cpu time      2.9329: real time      2.9318
 BZINTS: Fermi energy:    6.054153;   12.000000 electrons
         Band energy:-0.103940E+03;  BLOECHL correction:   -0.002721
       DOS:  cpu time      0.1483: real time      0.1482

 optimized coefficients for linear combined projectors, energy window       0.00     14.00
 species Ce NT=   1 L=   0     0.215    -0.353
 species Ce NT=   1 L=   1     0.874    -0.385
 species Ce NT=   1 L=   2     0.735    -0.863
 species Ce NT=   1 L=   3     0.989     0.988



 total charge

# of ion       s       p       d       f       tot
--------------------------------------------------
    1        2.046   5.638   0.892   0.990   9.566



 magnetization (x)

# of ion       s       p       d       f       tot
--------------------------------------------------
    1        0.000   0.001   0.003  -0.020  -0.016



 magnetization (y)

# of ion       s       p       d       f       tot
--------------------------------------------------
    1        0.000   0.000   0.000  -0.001  -0.001



 magnetization (z)

# of ion       s       p       d       f       tot
--------------------------------------------------
    1        0.000   0.000   0.000  -0.001  -0.001
 
    CHARGE:  cpu time      0.0293: real time      0.0294
    MIXING:  cpu time      0.0013: real time      0.0013
    --------------------------------------------
      LOOP:  cpu time      3.1281: real time      3.1272

 eigenvalue-minimisations  : 19440
 total energy-change (2. order) : 0.4618677E-03  (-0.3457121E-03)
 number of electron      12.0000012 magnetization      -0.0174875     -0.0012892     -0.0007809
 augmentation part       -1.2735567 magnetization      -0.0184561     -0.0013030     -0.0007630

 Broyden mixing:
  rms(total) = 0.15241E-01    rms(broyden)= 0.15211E-01
  rms(prec ) = 0.21807E-01
  weight for this iteration     100.00

 eigenvalues of (default mixing * dielectric matrix)
  average eigenvalue GAMMA=   1.2844
  2.3553  2.3553  0.1931  0.9016  0.6168

 Free energy of the ion-electron system (eV)
  ---------------------------------------------------
  alpha Z        PSCENC =        55.91029548
  Ewald energy   TEWEN  =      -893.50339594
  -Hartree energ DENC   =      -155.65012518
[...]
 -0.000   0.000   0.000  -0.000   0.000  -0.000  -0.000  -0.000   0.000  -0.000   0.000   0.000  -0.000   0.000  -0.000   0.000
 -0.000  -0.000  -0.000  -0.001  -0.000   0.000   0.000   0.000  -0.000  -0.000  -0.000   0.000  -0.000  -0.000  -0.000  -0.000
 -0.000   0.000   0.000   0.000   0.000  -0.000  -0.000  -0.000  -0.000   0.000   0.000   0.000   0.000  -0.000   0.000   0.000
 -0.000   0.000   0.000   0.000   0.000   0.000  -0.000  -0.000   0.000   0.000  -0.000   0.000  -0.000   0.000   0.000  -0.000
 -0.000   0.000  -0.000  -0.000  -0.000   0.000   0.000   0.000   0.000  -0.000  -0.000  -0.000  -0.000   0.000  -0.000  -0.000
 total augmentation occupancy for first ion, spin component:           3
  0.000   0.000   0.000  -0.000  -0.000   0.000  -0.000  -0.000  -0.000  -0.000   0.000  -0.000   0.000  -0.000  -0.000   0.000
  0.000  -0.001   0.000   0.000  -0.000  -0.000   0.000  -0.000  -0.000  -0.000  -0.000  -0.000   0.000   0.000   0.000  -0.000
  0.000   0.000   0.000  -0.000  -0.000   0.000   0.000   0.000   0.000   0.000  -0.000  -0.000   0.000   0.000   0.000  -0.000
 -0.000   0.000  -0.000   0.000   0.000  -0.000   0.000  -0.000  -0.000  -0.000   0.000  -0.000   0.000  -0.000  -0.000   0.000
 -0.000  -0.000  -0.000   0.000   0.000  -0.000  -0.000   0.000  -0.000  -0.000  -0.000   0.000  -0.000  -0.000  -0.000  -0.000
  0.000  -0.000   0.000  -0.000  -0.000   0.000   0.000  -0.000   0.000   0.000   0.000   0.000  -0.000   0.000   0.000   0.000
 -0.000   0.000   0.000   0.000  -0.000   0.000   0.000  -0.000   0.000   0.000   0.000  -0.000  -0.000   0.000   0.000   0.000
 -0.000  -0.000   0.000  -0.000   0.000  -0.000  -0.000   0.000   0.000   0.000   0.000  -0.000  -0.000   0.000   0.000   0.000
 -0.000  -0.000   0.000  -0.000  -0.000   0.000   0.000   0.000   0.000   0.000   0.000   0.000   0.000   0.000   0.000   0.000
 -0.000  -0.000   0.000  -0.000  -0.000   0.000   0.000   0.000   0.000   0.000   0.000   0.000   0.000   0.000   0.000   0.000
  0.000  -0.000  -0.000   0.000  -0.000   0.000   0.000   0.000   0.000   0.000   0.000   0.000  -0.000   0.000  -0.000   0.000
 -0.000  -0.000  -0.000  -0.000   0.000   0.000  -0.000  -0.000   0.000   0.000   0.000   0.000   0.000   0.000  -0.000   0.000
  0.000   0.000   0.000   0.000  -0.000  -0.000  -0.000  -0.000   0.000   0.000  -0.000   0.000   0.000  -0.000   0.000  -0.000
 -0.000   0.000   0.000  -0.000  -0.000   0.000   0.000   0.000   0.000   0.000   0.000   0.000  -0.000   0.000   0.000   0.000
 -0.000   0.000   0.000  -0.000  -0.000   0.000   0.000   0.000   0.000   0.000  -0.000  -0.000   0.000   0.000   0.000   0.000
  0.000  -0.000  -0.000   0.000  -0.000   0.000   0.000   0.000   0.000   0.000   0.000   0.000  -0.000   0.000   0.000   0.000
 -0.000   0.000  -0.000  -0.000   0.000   0.000   0.000  -0.000   0.000   0.000   0.000   0.000  -0.000   0.000   0.000  -0.000
  0.000  -0.000   0.000   0.000  -0.000  -0.000   0.000  -0.000   0.000   0.000  -0.000  -0.000   0.000   0.000   0.000  -0.000
  0.000  -0.000  -0.000  -0.000   0.000   0.000   0.000  -0.000  -0.000  -0.000   0.000  -0.000   0.000  -0.000  -0.000   0.000
 -0.000  -0.000  -0.000   0.000  -0.000   0.000   0.000  -0.000   0.000   0.000   0.000   0.000  -0.000   0.000   0.000   0.000
  0.000  -0.000  -0.000  -0.000  -0.000   0.000  -0.000   0.000  -0.000   0.000   0.000  -0.000   0.000  -0.000   0.000   0.000
 -0.000  -0.000  -0.000   0.000   0.000  -0.000  -0.000   0.000   0.000  -0.000  -0.000   0.000  -0.000   0.000  -0.000  -0.000
 -0.000  -0.000   0.000  -0.000  -0.000  -0.000  -0.000   0.000   0.000  -0.000  -0.000  -0.000  -0.000   0.000  -0.000  -0.000
 -0.000   0.000  -0.000  -0.000   0.000  -0.000   0.000  -0.000   0.000   0.000  -0.000   0.000   0.000   0.000   0.000  -0.000
 -0.000  -0.000  -0.000   0.000  -0.000   0.000   0.000   0.000  -0.000  -0.000  -0.000  -0.000  -0.000  -0.000  -0.000  -0.000
 -0.000   0.000   0.000   0.000   0.000  -0.000  -0.000  -0.000  -0.000   0.000  -0.000   0.000  -0.000  -0.000   0.000  -0.000
  0.000   0.000   0.000  -0.000   0.000  -0.000  -0.000  -0.000   0.000  -0.000  -0.000  -0.000   0.000   0.000  -0.000   0.000
 -0.000   0.000   0.000   0.000   0.000  -0.000  -0.000  -0.000  -0.000   0.000  -0.000   0.000  -0.000   0.000   0.000  -0.000
  0.000   0.000   0.000  -0.000  -0.000   0.000   0.000   0.000  -0.000   0.000   0.000  -0.000   0.000  -0.000   0.000   0.000
  0.000   0.000   0.000   0.000   0.000  -0.000  -0.000  -0.000  -0.000   0.000  -0.000   0.000   0.000  -0.000   0.000   0.000
  0.000  -0.000   0.000   0.000  -0.000  -0.000  -0.000   0.000  -0.000  -0.000   0.000  -0.000  -0.000  -0.000  -0.000   0.000
  0.000   0.000   0.000  -0.000  -0.000   0.000   0.000   0.000   0.000  -0.000   0.000   0.000   0.000   0.000  -0.000   0.000
 total augmentation occupancy for first ion, spin component:           4
  0.000   0.000   0.000   0.000   0.000  -0.000  -0.000  -0.000  -0.000  -0.000  -0.000  -0.000  -0.000  -0.000  -0.000  -0.000
  0.000  -0.000  -0.000   0.000   0.000  -0.000  -0.000   0.000  -0.000  -0.000   0.000  -0.000   0.000   0.000   0.000   0.000
  0.000  -0.000   0.000  -0.000   0.000   0.000  -0.000  -0.000   0.000  -0.000   0.000  -0.000   0.000   0.000  -0.000   0.000
  0.000   0.000  -0.000   0.000  -0.000   0.000   0.000   0.000  -0.000  -0.000  -0.000   0.000  -0.000  -0.000  -0.000   0.000
  0.000   0.000   0.000  -0.000   0.000  -0.000  -0.000   0.000  -0.000  -0.000  -0.000   0.000  -0.000  -0.000  -0.000  -0.000
 -0.000  -0.000   0.000   0.000  -0.000   0.000   0.000  -0.000  -0.000  -0.000   0.000   0.000   0.000  -0.000  -0.000   0.000
 -0.000  -0.000  -0.000   0.000  -0.000   0.000   0.000  -0.000   0.000   0.000  -0.000   0.000  -0.000   0.000   0.000  -0.000
 -0.000   0.000  -0.000   0.000   0.000  -0.000  -0.000   0.000  -0.000   0.000   0.000  -0.000  -0.000  -0.000   0.000  -0.000
 -0.000  -0.000   0.000  -0.000  -0.000  -0.000   0.000  -0.000   0.000   0.000  -0.000   0.000  -0.000   0.000  -0.000   0.000
 -0.000  -0.000  -0.000  -0.000  -0.000  -0.000   0.000   0.000   0.000   0.000  -0.000   0.000  -0.000   0.000   0.000  -0.000
 -0.000   0.000   0.000  -0.000  -0.000   0.000  -0.000   0.000  -0.000  -0.000   0.000  -0.000  -0.000   0.000  -0.000   0.000
 -0.000  -0.000  -0.000   0.000   0.000   0.000   0.000  -0.000   0.000   0.000  -0.000   0.000   0.000   0.000   0.000  -0.000
 -0.000   0.000   0.000  -0.000  -0.000   0.000  -0.000  -0.000  -0.000  -0.000  -0.000   0.000   0.000  -0.000   0.000  -0.000
 -0.000   0.000   0.000  -0.000  -0.000  -0.000   0.000  -0.000   0.000   0.000   0.000   0.000  -0.000   0.000   0.000   0.000
 -0.000   0.000  -0.000  -0.000  -0.000  -0.000   0.000   0.000  -0.000   0.000  -0.000   0.000   0.000   0.000   0.000  -0.000
 -0.000   0.000   0.000   0.000  -0.000   0.000  -0.000  -0.000   0.000  -0.000   0.000  -0.000  -0.000   0.000  -0.000   0.000
 -0.000   0.000  -0.000  -0.000   0.000   0.000   0.000  -0.000   0.000   0.000  -0.000   0.000  -0.000   0.000   0.000  -0.000
 -0.000   0.000   0.000  -0.000  -0.000   0.000  -0.000  -0.000  -0.000  -0.000  -0.000   0.000   0.000  -0.000  -0.000   0.000
 -0.000  -0.000  -0.000   0.000  -0.000   0.000  -0.000  -0.000  -0.000  -0.000   0.000   0.000   0.000  -0.000  -0.000   0.000
 -0.000  -0.000   0.000  -0.000   0.000   0.000   0.000  -0.000  -0.000  -0.000   0.000   0.000   0.000  -0.000  -0.000   0.000
 -0.000  -0.000  -0.000   0.000  -0.000   0.000   0.000   0.000  -0.000   0.000   0.000  -0.000   0.000  -0.000   0.000   0.000
  0.000  -0.000   0.000   0.000   0.000  -0.000  -0.000  -0.000  -0.000   0.000   0.000   0.000  -0.000  -0.000  -0.000   0.000
 -0.000  -0.000  -0.000   0.000   0.000  -0.000   0.000  -0.000   0.000  -0.000  -0.000  -0.000  -0.000   0.000  -0.000  -0.000
  0.000  -0.000  -0.000  -0.000   0.000   0.000   0.000  -0.000   0.000  -0.000   0.000   0.000  -0.000   0.000  -0.000  -0.000
 -0.000   0.000   0.000  -0.000   0.000   0.000   0.000  -0.000  -0.000  -0.000   0.000  -0.000  -0.000  -0.000  -0.000   0.000
  0.000   0.000   0.000  -0.000   0.000  -0.000  -0.000  -0.000  -0.000   0.000  -0.000  -0.000  -0.000  -0.000   0.000  -0.000
  0.000   0.000  -0.000   0.000   0.000  -0.000  -0.000  -0.000   0.000   0.000  -0.000  -0.000  -0.000   0.000   0.000  -0.000
  0.000   0.000   0.000  -0.000   0.000  -0.000  -0.000  -0.000   0.000  -0.000  -0.000   0.000  -0.000   0.000  -0.000  -0.000
 -0.000   0.000  -0.000  -0.000  -0.000   0.000   0.000   0.000   0.000   0.000  -0.000  -0.000  -0.000   0.000   0.000   0.000
  0.000   0.000   0.000  -0.000  -0.000  -0.000  -0.000  -0.000  -0.000   0.000   0.000   0.000   0.000   0.000   0.000   0.000
 -0.000   0.000  -0.000   0.000  -0.000   0.000  -0.000  -0.000  -0.000   0.000  -0.000  -0.000   0.000  -0.000   0.000  -0.000
  0.000  -0.000  -0.000   0.000  -0.000   0.000   0.000   0.000   0.000   0.000  -0.000   0.000   0.000   0.000   0.000  -0.000


------------------------ aborting loop because EDIFF is reached ----------------------------------------


 WARNING: Number of projections from LOCPROJ (14) /= NUM_WANN (0). Will use
     the number of projections from LOCPROJ


 optimized coefficients for linear combined projectors, energy window       0.00     14.00
 species Ce NT=   1 L=   0     0.213    -0.353
 species Ce NT=   1 L=   1     0.874    -0.385
 species Ce NT=   1 L=   2     0.735    -0.863
 species Ce NT=   1 L=   3     0.989     0.988



 total charge

# of ion       s       p       d       f       tot
--------------------------------------------------
    1        2.045   5.638   0.890   0.995   9.568



 magnetization (x)

# of ion       s       p       d       f       tot
--------------------------------------------------
    1        0.000   0.001   0.005  -0.029  -0.023



 magnetization (y)

# of ion       s       p       d       f       tot
--------------------------------------------------
    1        0.000   0.000   0.000  -0.002  -0.002



 magnetization (z)

# of ion       s       p       d       f       tot
--------------------------------------------------
    1        0.000   0.000   0.000  -0.001  -0.001
 
    CHARGE:  cpu time      0.0124: real time      0.0124
    FORLOC:  cpu time      0.0002: real time      0.0002
    FORNL :  cpu time      0.0364: real time      0.0364
    STRESS:  cpu time      0.3765: real time      0.3763
    FORCOR:  cpu time      0.0051: real time      0.0051
    FORHAR:  cpu time      0.0007: real time      0.0007
    MIXING:  cpu time      0.0033: real time      0.0033
    OFIELD:  cpu time      0.0000: real time      0.0000

  FORCE on cell =-STRESS in cart. coord.  units (eV):
  Direction    XX          YY          ZZ          XY          YZ          ZX
  --------------------------------------------------------------------------------------
  Alpha Z    55.91030    55.91030    55.91030
  Ewald    -297.83447  -297.83447  -297.83447    -0.00000     0.00000    -0.00000
  Hartree    51.86922    51.86924    51.86924    -0.00014    -0.00013    -0.00013
  E(xc)     -53.48326   -53.48329   -53.48329     0.00004     0.00005     0.00005
  Local      -6.93285    -6.93342    -6.93342     0.00002     0.00002     0.00002
  n-local    63.54491    63.54496    63.54496    -0.00068    -0.00065    -0.00067
  augment   -21.48374   -21.48325   -21.48324    -0.00000    -0.00004    -0.00002
  Kinetic   206.54511   206.54521   206.54521     0.00019     0.00014     0.00017
  Fock        0.00000     0.00000     0.00000     0.00000     0.00000     0.00000
  -------------------------------------------------------------------------------------
  Total      -1.86479    -1.86473    -1.86473    -0.00056    -0.00060    -0.00058
  in kB     -79.36779   -79.36533   -79.36530    -0.02387    -0.02571    -0.02468
  external pressure =      -79.37 kB  Pullay stress =        0.00 kB


 VOLUME and BASIS-vectors are now :
 -----------------------------------------------------------------------------
  energy-cutoff  :      273.04
  volume of cell :       37.64
      direct lattice vectors                 reciprocal lattice vectors
     0.000000000  2.660042906  2.660042906    -0.187966893  0.187966893  0.187966893
     2.660042906  0.000000000  2.660042906     0.187966893 -0.187966893  0.187966893
     2.660042906  2.660042906  0.000000000     0.187966893  0.187966893 -0.187966893

  length of vectors
     3.761868754  3.761868754  3.761868754     0.325568209  0.325568209  0.325568209


 FORCES acting on ions
    electron-ion (+dipol)            ewald-force                    non-local-force                 convergence-correction
 -----------------------------------------------------------------------------------------------
   -.139E-06 0.276E-05 -.214E-05   -.162E-15 -.324E-15 0.304E-14   0.148E-08 -.812E-06 0.139E-05   0.112E-06 -.148E-05 0.107E-05
 -----------------------------------------------------------------------------------------------
   -.139E-06 0.276E-05 -.214E-05   -.162E-15 -.324E-15 0.304E-14   0.148E-08 -.812E-06 0.139E-05   0.112E-06 -.148E-05 0.107E-05
 
 
 POSITION                                       TOTAL-FORCE (eV/Angst)
 -----------------------------------------------------------------------------------
      0.00000      0.00000      0.00000        -0.000000      0.000000      0.000000
 -----------------------------------------------------------------------------------
    total drift:                               -0.000000      0.000000      0.000000


--------------------------------------------------------------------------------------------------------



  FREE ENERGIE OF THE ION-ELECTRON SYSTEM (eV)
  ---------------------------------------------------
  free  energy   TOTEN  =        -5.95377620 eV

  energy  without entropy=       -5.95377620  energy(sigma->0) =       -5.95377620
 


--------------------------------------------------------------------------------------------------------


    POTLOK:  cpu time      0.0167: real time      0.0167


--------------------------------------------------------------------------------------------------------


 writing wavefunctions
     LOOP+:  cpu time     44.2599: real time     44.7136
 -----------------------------------------------------------------------------
|                                                                             |
|           W    W    AA    RRRRR   N    N  II  N    N   GGGG   !!!           |
|           W    W   A  A   R    R  NN   N  II  NN   N  G    G  !!!           |
|           W    W  A    A  R    R  N N  N  II  N N  N  G       !!!           |
|           W WW W  AAAAAA  RRRRR   N  N N  II  N  N N  G  GGG   !            |
|           WW  WW  A    A  R   R   N   NN  II  N   NN  G    G                |
|           W    W  A    A  R    R  N    N  II  N    N   GGGG   !!!           |
|                                                                             |
|     Tetrahedron method does not include variations of the Fermi             |
|     occupations, so forces and stress will be inaccurate. We suggest        |
|     using a different smearing scheme ISMEAR = 1 or 2 for metals in         |
|     relaxations.                                                            |
|                                                                             |
 -----------------------------------------------------------------------------

    4ORBIT:  cpu time      0.0000: real time      0.0000
 


 orbital moment (x)
 
 # of ion     p       d       f       tot
 ------------------------------------------------
  1         0.000  -0.001   0.025   0.025
 ------------------------------------------------
            0.000  -0.001   0.025   0.025
 


 orbital moment (y)
 
 # of ion     p       d       f       tot
 ------------------------------------------------
  1         0.000  -0.000   0.002   0.002
 ------------------------------------------------
            0.000  -0.000   0.002   0.002
 


 orbital moment (z)
 
 # of ion     p       d       f       tot
 ------------------------------------------------
  1         0.000  -0.000   0.001   0.001
 ------------------------------------------------
            0.000  -0.000   0.001   0.001

 Spin-Orbit-Coupling matrix elements

 Ion:    1  E_soc:     -0.7425585
 l=   1
     0.0000000    -0.1101224    -0.1101242
    -0.1101224     0.0000000    -0.1101241
    -0.1101242    -0.1101241     0.0000000
 l=   2
     0.0000000     0.0000597     0.0000000     0.0000594    -0.0007434
     0.0000597     0.0000000    -0.0005582     0.0000597    -0.0001861
     0.0000000    -0.0005582     0.0000000    -0.0005575     0.0000000
     0.0000594     0.0000597    -0.0005575     0.0000000    -0.0001858
    -0.0007434    -0.0001861     0.0000000    -0.0001858     0.0000000
 l=   3
     0.0000000    -0.0020711     0.0000000     0.0000000     0.0000000    -0.0009698    -0.0069272
    -0.0020711     0.0000000    -0.0034562     0.0000000    -0.0034519    -0.0055274    -0.0020711
     0.0000000    -0.0034562     0.0000000    -0.0046587    -0.0004988    -0.0017983     0.0000000
     0.0000000     0.0000000    -0.0046587     0.0000000    -0.0046617     0.0000000     0.0000000
     0.0000000    -0.0034519    -0.0004988    -0.0046617     0.0000000    -0.0017925     0.0000000
    -0.0009698    -0.0055274    -0.0017983     0.0000000    -0.0017925     0.0000000    -0.0009718
    -0.0069272    -0.0020711     0.0000000     0.0000000     0.0000000    -0.0009718     0.0000000

 optimized coefficients for linear combined projectors, energy window       0.00     14.00
 species Ce NT=   1 L=   0     0.213    -0.353
 species Ce NT=   1 L=   1     0.874    -0.385
 species Ce NT=   1 L=   2     0.735    -0.863
 species Ce NT=   1 L=   3     0.989     0.988



 total charge

# of ion       s       p       d       f       tot
--------------------------------------------------
    1        2.045   5.638   0.890   0.995   9.568



 magnetization (x)

# of ion       s       p       d       f       tot
--------------------------------------------------
    1        0.000   0.001   0.005  -0.029  -0.023



 magnetization (y)

# of ion       s       p       d       f       tot
--------------------------------------------------
    1        0.000   0.000   0.000  -0.002  -0.002



 magnetization (z)

# of ion       s       p       d       f       tot
--------------------------------------------------
    1        0.000   0.000   0.000  -0.001  -0.001
 
 BZINTS: Fermi energy:    6.045286;   12.000000 electrons
         Band energy:-0.104019E+03;  BLOECHL correction:   -0.003001
 BZINTS: Fermi energy:    6.045286;   12.000000 electrons
         Band energy:-0.104019E+03;  BLOECHL correction:   -0.003001
 BZINTS: Fermi energy:    6.045286;   12.000000 electrons
         Band energy:-0.104019E+03;  BLOECHL correction:   -0.003001
 BZINTS: Fermi energy:    6.045286;   12.000000 electrons
         Band energy:-0.104019E+03;  BLOECHL correction:   -0.003001

 total amount of memory used by VASP MPI-rank0    47666. kBytes
=======================================================================

   base      :      30000. kBytes
   nonl-proj :      12806. kBytes
   fftplans  :        161. kBytes
   grid      :        983. kBytes
   one-center:        196. kBytes
   wavefun   :       3520. kBytes
 
  
  
 General timing and accounting informations for this job:
 ========================================================
  
                  Total CPU time used (sec):       63.342
                            User time (sec):       62.714
                          System time (sec):        0.628
                         Elapsed time (sec):       64.917
  
                   Maximum memory used (kb):      127000.
                   Average memory used (kb):          N/A
  
                          Minor page faults:        48566
                          Major page faults:           11
                 Voluntary context switches:         2748
