File written on  6Jan2022 at 14:48:57 

calc_only_A  :  F

begin real_lattice
   3.7700000   0.0000000   0.0000000
   0.0000000   3.8420900   0.0000000
   0.0000000   0.0000000   3.9600000
end real_lattice

begin recip_lattice
   1.6666274   0.0000000   0.0000000
   0.0000000   1.6353561   0.0000000
   0.0000000   0.0000000   1.5866630
end recip_lattice

begin kpoints
   729
    0.00000000    0.00000000    0.00000000
    0.11111111    0.00000000    0.00000000
    0.22222222    0.00000000    0.00000000
    0.33333333    0.00000000    0.00000000
    0.44444444    0.00000000    0.00000000
    0.00000000    0.11111111    0.00000000
    0.11111111    0.11111111    0.00000000
    0.22222222    0.11111111    0.00000000
    0.33333333    0.11111111    0.00000000
    0.44444444    0.11111111    0.00000000
    0.00000000    0.22222222    0.00000000
    0.11111111    0.22222222    0.00000000
    0.22222222    0.22222222    0.00000000
    0.33333333    0.22222222    0.00000000
    0.44444444    0.22222222    0.00000000
    0.00000000    0.33333333    0.00000000
    0.11111111    0.33333333    0.00000000
    0.22222222    0.33333333    0.00000000
    0.33333333    0.33333333    0.00000000
    0.44444444    0.33333333    0.00000000
    0.00000000    0.44444444    0.00000000
    0.11111111    0.44444444    0.00000000
    0.22222222    0.44444444    0.00000000
    0.33333333    0.44444444    0.00000000
    0.44444444    0.44444444    0.00000000
    0.00000000    0.00000000    0.11111111
    0.11111111    0.00000000    0.11111111
    0.22222222    0.00000000    0.11111111
    0.33333333    0.00000000    0.11111111
    0.44444444    0.00000000    0.11111111
    0.00000000    0.11111111    0.11111111
    0.11111111    0.11111111    0.11111111
    0.22222222    0.11111111    0.11111111
    0.33333333    0.11111111    0.11111111
    0.44444444    0.11111111    0.11111111
    0.00000000    0.22222222    0.11111111
    0.11111111    0.22222222    0.11111111
    0.22222222    0.22222222    0.11111111
    0.33333333    0.22222222    0.11111111
    0.44444444    0.22222222    0.11111111
    0.00000000    0.33333333    0.11111111
    0.11111111    0.33333333    0.11111111
    0.22222222    0.33333333    0.11111111
    0.33333333    0.33333333    0.11111111
    0.44444444    0.33333333    0.11111111
    0.00000000    0.44444444    0.11111111
    0.11111111    0.44444444    0.11111111
    0.22222222    0.44444444    0.11111111
    0.33333333    0.44444444    0.11111111
    0.44444444    0.44444444    0.11111111
    0.00000000    0.00000000    0.22222222
    0.11111111    0.00000000    0.22222222
    0.22222222    0.00000000    0.22222222
    0.33333333    0.00000000    0.22222222
    0.44444444    0.00000000    0.22222222
    0.00000000    0.11111111    0.22222222
    0.11111111    0.11111111    0.22222222
    0.22222222    0.11111111    0.22222222
    0.33333333    0.11111111    0.22222222
    0.44444444    0.11111111    0.22222222
    0.00000000    0.22222222    0.22222222
    0.11111111    0.22222222    0.22222222
    0.22222222    0.22222222    0.22222222
    0.33333333    0.22222222    0.22222222
    0.44444444    0.22222222    0.22222222
    0.00000000    0.33333333    0.22222222
    0.11111111    0.33333333    0.22222222
    0.22222222    0.33333333    0.22222222
    0.33333333    0.33333333    0.22222222
    0.44444444    0.33333333    0.22222222
    0.00000000    0.44444444    0.22222222
    0.11111111    0.44444444    0.22222222
    0.22222222    0.44444444    0.22222222
    0.33333333    0.44444444    0.22222222
    0.44444444    0.44444444    0.22222222
    0.00000000    0.00000000    0.33333333
    0.11111111    0.00000000    0.33333333
    0.22222222    0.00000000    0.33333333
    0.33333333    0.00000000    0.33333333
    0.44444444    0.00000000    0.33333333
    0.00000000    0.11111111    0.33333333
    0.11111111    0.11111111    0.33333333
    0.22222222    0.11111111    0.33333333
    0.33333333    0.11111111    0.33333333
    0.44444444    0.11111111    0.33333333
    0.00000000    0.22222222    0.33333333
    0.11111111    0.22222222    0.33333333
    0.22222222    0.22222222    0.33333333
    0.33333333    0.22222222    0.33333333
    0.44444444    0.22222222    0.33333333
    0.00000000    0.33333333    0.33333333
    0.11111111    0.33333333    0.33333333
    0.22222222    0.33333333    0.33333333
    0.33333333    0.33333333    0.33333333
    0.44444444    0.33333333    0.33333333
    0.00000000    0.44444444    0.33333333
    0.11111111    0.44444444    0.33333333
    0.22222222    0.44444444    0.33333333
    0.33333333    0.44444444    0.33333333
    0.44444444    0.44444444    0.33333333
    0.00000000    0.00000000    0.44444444
    0.11111111    0.00000000    0.44444444
    0.22222222    0.00000000    0.44444444
    0.33333333    0.00000000    0.44444444
    0.44444444    0.00000000    0.44444444
    0.00000000    0.11111111    0.44444444
    0.11111111    0.11111111    0.44444444
    0.22222222    0.11111111    0.44444444
    0.33333333    0.11111111    0.44444444
    0.44444444    0.11111111    0.44444444
    0.00000000    0.22222222    0.44444444
    0.11111111    0.22222222    0.44444444
    0.22222222    0.22222222    0.44444444
    0.33333333    0.22222222    0.44444444
    0.44444444    0.22222222    0.44444444
    0.00000000    0.33333333    0.44444444
    0.11111111    0.33333333    0.44444444
    0.22222222    0.33333333    0.44444444
    0.33333333    0.33333333    0.44444444
    0.44444444    0.33333333    0.44444444
    0.00000000    0.44444444    0.44444444
    0.11111111    0.44444444    0.44444444
    0.22222222    0.44444444    0.44444444
    0.33333333    0.44444444    0.44444444
    0.44444444    0.44444444    0.44444444
   -0.11111111   -0.00000000   -0.00000000
   -0.22222222   -0.00000000   -0.00000000
   -0.33333333   -0.00000000   -0.00000000
   -0.44444444   -0.00000000   -0.00000000
   -0.00000000   -0.11111111   -0.00000000
   -0.11111111   -0.11111111   -0.00000000
   -0.11111111    0.11111111   -0.00000000
    0.11111111   -0.11111111    0.00000000
   -0.22222222   -0.11111111   -0.00000000
   -0.22222222    0.11111111   -0.00000000
    0.22222222   -0.11111111    0.00000000
   -0.33333333   -0.11111111   -0.00000000
   -0.33333333    0.11111111   -0.00000000
    0.33333333   -0.11111111    0.00000000
   -0.44444444   -0.11111111   -0.00000000
   -0.44444444    0.11111111   -0.00000000
    0.44444444   -0.11111111    0.00000000
   -0.00000000   -0.22222222   -0.00000000
   -0.11111111   -0.22222222   -0.00000000
   -0.11111111    0.22222222   -0.00000000
    0.11111111   -0.22222222    0.00000000
   -0.22222222   -0.22222222   -0.00000000
   -0.22222222    0.22222222   -0.00000000
    0.22222222   -0.22222222    0.00000000
   -0.33333333   -0.22222222   -0.00000000
   -0.33333333    0.22222222   -0.00000000
    0.33333333   -0.22222222    0.00000000
   -0.44444444   -0.22222222   -0.00000000
   -0.44444444    0.22222222   -0.00000000
    0.44444444   -0.22222222    0.00000000
   -0.00000000   -0.33333333   -0.00000000
   -0.11111111   -0.33333333   -0.00000000
   -0.11111111    0.33333333   -0.00000000
    0.11111111   -0.33333333    0.00000000
   -0.22222222   -0.33333333   -0.00000000
   -0.22222222    0.33333333   -0.00000000
    0.22222222   -0.33333333    0.00000000
   -0.33333333   -0.33333333   -0.00000000
   -0.33333333    0.33333333   -0.00000000
    0.33333333   -0.33333333    0.00000000
   -0.44444444   -0.33333333   -0.00000000
   -0.44444444    0.33333333   -0.00000000
    0.44444444   -0.33333333    0.00000000
   -0.00000000   -0.44444444   -0.00000000
   -0.11111111   -0.44444444   -0.00000000
   -0.11111111    0.44444444   -0.00000000
    0.11111111   -0.44444444    0.00000000
   -0.22222222   -0.44444444   -0.00000000
   -0.22222222    0.44444444   -0.00000000
    0.22222222   -0.44444444    0.00000000
   -0.33333333   -0.44444444   -0.00000000
   -0.33333333    0.44444444   -0.00000000
    0.33333333   -0.44444444    0.00000000
   -0.44444444   -0.44444444   -0.00000000
   -0.44444444    0.44444444   -0.00000000
    0.44444444   -0.44444444    0.00000000
   -0.00000000   -0.00000000   -0.11111111
   -0.11111111   -0.00000000   -0.11111111
   -0.11111111   -0.00000000    0.11111111
    0.11111111    0.00000000   -0.11111111
   -0.22222222   -0.00000000   -0.11111111
   -0.22222222   -0.00000000    0.11111111
    0.22222222    0.00000000   -0.11111111
   -0.33333333   -0.00000000   -0.11111111
   -0.33333333   -0.00000000    0.11111111
    0.33333333    0.00000000   -0.11111111
   -0.44444444   -0.00000000   -0.11111111
   -0.44444444   -0.00000000    0.11111111
    0.44444444    0.00000000   -0.11111111
   -0.00000000   -0.11111111   -0.11111111
   -0.00000000   -0.11111111    0.11111111
    0.00000000    0.11111111   -0.11111111
   -0.11111111   -0.11111111   -0.11111111
   -0.11111111   -0.11111111    0.11111111
    0.11111111    0.11111111   -0.11111111
   -0.11111111    0.11111111   -0.11111111
    0.11111111   -0.11111111    0.11111111
    0.11111111   -0.11111111   -0.11111111
   -0.11111111    0.11111111    0.11111111
   -0.22222222   -0.11111111   -0.11111111
   -0.22222222   -0.11111111    0.11111111
    0.22222222    0.11111111   -0.11111111
   -0.22222222    0.11111111   -0.11111111
    0.22222222   -0.11111111    0.11111111
    0.22222222   -0.11111111   -0.11111111
   -0.22222222    0.11111111    0.11111111
   -0.33333333   -0.11111111   -0.11111111
   -0.33333333   -0.11111111    0.11111111
    0.33333333    0.11111111   -0.11111111
   -0.33333333    0.11111111   -0.11111111
    0.33333333   -0.11111111    0.11111111
    0.33333333   -0.11111111   -0.11111111
   -0.33333333    0.11111111    0.11111111
   -0.44444444   -0.11111111   -0.11111111
   -0.44444444   -0.11111111    0.11111111
    0.44444444    0.11111111   -0.11111111
   -0.44444444    0.11111111   -0.11111111
    0.44444444   -0.11111111    0.11111111
    0.44444444   -0.11111111   -0.11111111
   -0.44444444    0.11111111    0.11111111
   -0.00000000   -0.22222222   -0.11111111
   -0.00000000   -0.22222222    0.11111111
    0.00000000    0.22222222   -0.11111111
   -0.11111111   -0.22222222   -0.11111111
   -0.11111111   -0.22222222    0.11111111
    0.11111111    0.22222222   -0.11111111
   -0.11111111    0.22222222   -0.11111111
    0.11111111   -0.22222222    0.11111111
    0.11111111   -0.22222222   -0.11111111
   -0.11111111    0.22222222    0.11111111
   -0.22222222   -0.22222222   -0.11111111
   -0.22222222   -0.22222222    0.11111111
    0.22222222    0.22222222   -0.11111111
   -0.22222222    0.22222222   -0.11111111
    0.22222222   -0.22222222    0.11111111
    0.22222222   -0.22222222   -0.11111111
   -0.22222222    0.22222222    0.11111111
   -0.33333333   -0.22222222   -0.11111111
   -0.33333333   -0.22222222    0.11111111
    0.33333333    0.22222222   -0.11111111
   -0.33333333    0.22222222   -0.11111111
    0.33333333   -0.22222222    0.11111111
    0.33333333   -0.22222222   -0.11111111
   -0.33333333    0.22222222    0.11111111
   -0.44444444   -0.22222222   -0.11111111
   -0.44444444   -0.22222222    0.11111111
    0.44444444    0.22222222   -0.11111111
   -0.44444444    0.22222222   -0.11111111
    0.44444444   -0.22222222    0.11111111
    0.44444444   -0.22222222   -0.11111111
   -0.44444444    0.22222222    0.11111111
   -0.00000000   -0.33333333   -0.11111111
   -0.00000000   -0.33333333    0.11111111
    0.00000000    0.33333333   -0.11111111
   -0.11111111   -0.33333333   -0.11111111
   -0.11111111   -0.33333333    0.11111111
    0.11111111    0.33333333   -0.11111111
   -0.11111111    0.33333333   -0.11111111
    0.11111111   -0.33333333    0.11111111
    0.11111111   -0.33333333   -0.11111111
   -0.11111111    0.33333333    0.11111111
   -0.22222222   -0.33333333   -0.11111111
   -0.22222222   -0.33333333    0.11111111
    0.22222222    0.33333333   -0.11111111
   -0.22222222    0.33333333   -0.11111111
    0.22222222   -0.33333333    0.11111111
    0.22222222   -0.33333333   -0.11111111
   -0.22222222    0.33333333    0.11111111
   -0.33333333   -0.33333333   -0.11111111
   -0.33333333   -0.33333333    0.11111111
    0.33333333    0.33333333   -0.11111111
   -0.33333333    0.33333333   -0.11111111
    0.33333333   -0.33333333    0.11111111
    0.33333333   -0.33333333   -0.11111111
   -0.33333333    0.33333333    0.11111111
   -0.44444444   -0.33333333   -0.11111111
   -0.44444444   -0.33333333    0.11111111
    0.44444444    0.33333333   -0.11111111
   -0.44444444    0.33333333   -0.11111111
    0.44444444   -0.33333333    0.11111111
    0.44444444   -0.33333333   -0.11111111
   -0.44444444    0.33333333    0.11111111
   -0.00000000   -0.44444444   -0.11111111
   -0.00000000   -0.44444444    0.11111111
    0.00000000    0.44444444   -0.11111111
   -0.11111111   -0.44444444   -0.11111111
   -0.11111111   -0.44444444    0.11111111
    0.11111111    0.44444444   -0.11111111
   -0.11111111    0.44444444   -0.11111111
    0.11111111   -0.44444444    0.11111111
    0.11111111   -0.44444444   -0.11111111
   -0.11111111    0.44444444    0.11111111
   -0.22222222   -0.44444444   -0.11111111
   -0.22222222   -0.44444444    0.11111111
    0.22222222    0.44444444   -0.11111111
   -0.22222222    0.44444444   -0.11111111
    0.22222222   -0.44444444    0.11111111
    0.22222222   -0.44444444   -0.11111111
   -0.22222222    0.44444444    0.11111111
   -0.33333333   -0.44444444   -0.11111111
   -0.33333333   -0.44444444    0.11111111
    0.33333333    0.44444444   -0.11111111
   -0.33333333    0.44444444   -0.11111111
    0.33333333   -0.44444444    0.11111111
    0.33333333   -0.44444444   -0.11111111
   -0.33333333    0.44444444    0.11111111
   -0.44444444   -0.44444444   -0.11111111
   -0.44444444   -0.44444444    0.11111111
    0.44444444    0.44444444   -0.11111111
   -0.44444444    0.44444444   -0.11111111
    0.44444444   -0.44444444    0.11111111
    0.44444444   -0.44444444   -0.11111111
   -0.44444444    0.44444444    0.11111111
   -0.00000000   -0.00000000   -0.22222222
   -0.11111111   -0.00000000   -0.22222222
   -0.11111111   -0.00000000    0.22222222
    0.11111111    0.00000000   -0.22222222
   -0.22222222   -0.00000000   -0.22222222
   -0.22222222   -0.00000000    0.22222222
    0.22222222    0.00000000   -0.22222222
   -0.33333333   -0.00000000   -0.22222222
   -0.33333333   -0.00000000    0.22222222
    0.33333333    0.00000000   -0.22222222
   -0.44444444   -0.00000000   -0.22222222
   -0.44444444   -0.00000000    0.22222222
    0.44444444    0.00000000   -0.22222222
   -0.00000000   -0.11111111   -0.22222222
   -0.00000000   -0.11111111    0.22222222
    0.00000000    0.11111111   -0.22222222
   -0.11111111   -0.11111111   -0.22222222
   -0.11111111   -0.11111111    0.22222222
    0.11111111    0.11111111   -0.22222222
   -0.11111111    0.11111111   -0.22222222
    0.11111111   -0.11111111    0.22222222
    0.11111111   -0.11111111   -0.22222222
   -0.11111111    0.11111111    0.22222222
   -0.22222222   -0.11111111   -0.22222222
   -0.22222222   -0.11111111    0.22222222
    0.22222222    0.11111111   -0.22222222
   -0.22222222    0.11111111   -0.22222222
    0.22222222   -0.11111111    0.22222222
    0.22222222   -0.11111111   -0.22222222
   -0.22222222    0.11111111    0.22222222
   -0.33333333   -0.11111111   -0.22222222
   -0.33333333   -0.11111111    0.22222222
    0.33333333    0.11111111   -0.22222222
   -0.33333333    0.11111111   -0.22222222
    0.33333333   -0.11111111    0.22222222
    0.33333333   -0.11111111   -0.22222222
   -0.33333333    0.11111111    0.22222222
   -0.44444444   -0.11111111   -0.22222222
   -0.44444444   -0.11111111    0.22222222
    0.44444444    0.11111111   -0.22222222
   -0.44444444    0.11111111   -0.22222222
    0.44444444   -0.11111111    0.22222222
    0.44444444   -0.11111111   -0.22222222
   -0.44444444    0.11111111    0.22222222
   -0.00000000   -0.22222222   -0.22222222
   -0.00000000   -0.22222222    0.22222222
    0.00000000    0.22222222   -0.22222222
   -0.11111111   -0.22222222   -0.22222222
   -0.11111111   -0.22222222    0.22222222
    0.11111111    0.22222222   -0.22222222
   -0.11111111    0.22222222   -0.22222222
    0.11111111   -0.22222222    0.22222222
    0.11111111   -0.22222222   -0.22222222
   -0.11111111    0.22222222    0.22222222
   -0.22222222   -0.22222222   -0.22222222
   -0.22222222   -0.22222222    0.22222222
    0.22222222    0.22222222   -0.22222222
   -0.22222222    0.22222222   -0.22222222
    0.22222222   -0.22222222    0.22222222
    0.22222222   -0.22222222   -0.22222222
   -0.22222222    0.22222222    0.22222222
   -0.33333333   -0.22222222   -0.22222222
   -0.33333333   -0.22222222    0.22222222
    0.33333333    0.22222222   -0.22222222
   -0.33333333    0.22222222   -0.22222222
    0.33333333   -0.22222222    0.22222222
    0.33333333   -0.22222222   -0.22222222
   -0.33333333    0.22222222    0.22222222
   -0.44444444   -0.22222222   -0.22222222
   -0.44444444   -0.22222222    0.22222222
    0.44444444    0.22222222   -0.22222222
   -0.44444444    0.22222222   -0.22222222
    0.44444444   -0.22222222    0.22222222
    0.44444444   -0.22222222   -0.22222222
   -0.44444444    0.22222222    0.22222222
   -0.00000000   -0.33333333   -0.22222222
   -0.00000000   -0.33333333    0.22222222
    0.00000000    0.33333333   -0.22222222
   -0.11111111   -0.33333333   -0.22222222
   -0.11111111   -0.33333333    0.22222222
    0.11111111    0.33333333   -0.22222222
   -0.11111111    0.33333333   -0.22222222
    0.11111111   -0.33333333    0.22222222
    0.11111111   -0.33333333   -0.22222222
   -0.11111111    0.33333333    0.22222222
   -0.22222222   -0.33333333   -0.22222222
   -0.22222222   -0.33333333    0.22222222
    0.22222222    0.33333333   -0.22222222
   -0.22222222    0.33333333   -0.22222222
    0.22222222   -0.33333333    0.22222222
    0.22222222   -0.33333333   -0.22222222
   -0.22222222    0.33333333    0.22222222
   -0.33333333   -0.33333333   -0.22222222
   -0.33333333   -0.33333333    0.22222222
    0.33333333    0.33333333   -0.22222222
   -0.33333333    0.33333333   -0.22222222
    0.33333333   -0.33333333    0.22222222
    0.33333333   -0.33333333   -0.22222222
   -0.33333333    0.33333333    0.22222222
   -0.44444444   -0.33333333   -0.22222222
   -0.44444444   -0.33333333    0.22222222
    0.44444444    0.33333333   -0.22222222
   -0.44444444    0.33333333   -0.22222222
    0.44444444   -0.33333333    0.22222222
    0.44444444   -0.33333333   -0.22222222
   -0.44444444    0.33333333    0.22222222
   -0.00000000   -0.44444444   -0.22222222
   -0.00000000   -0.44444444    0.22222222
    0.00000000    0.44444444   -0.22222222
   -0.11111111   -0.44444444   -0.22222222
   -0.11111111   -0.44444444    0.22222222
    0.11111111    0.44444444   -0.22222222
   -0.11111111    0.44444444   -0.22222222
    0.11111111   -0.44444444    0.22222222
    0.11111111   -0.44444444   -0.22222222
   -0.11111111    0.44444444    0.22222222
   -0.22222222   -0.44444444   -0.22222222
   -0.22222222   -0.44444444    0.22222222
    0.22222222    0.44444444   -0.22222222
   -0.22222222    0.44444444   -0.22222222
    0.22222222   -0.44444444    0.22222222
    0.22222222   -0.44444444   -0.22222222
   -0.22222222    0.44444444    0.22222222
   -0.33333333   -0.44444444   -0.22222222
   -0.33333333   -0.44444444    0.22222222
    0.33333333    0.44444444   -0.22222222
   -0.33333333    0.44444444   -0.22222222
    0.33333333   -0.44444444    0.22222222
    0.33333333   -0.44444444   -0.22222222
   -0.33333333    0.44444444    0.22222222
   -0.44444444   -0.44444444   -0.22222222
   -0.44444444   -0.44444444    0.22222222
    0.44444444    0.44444444   -0.22222222
   -0.44444444    0.44444444   -0.22222222
    0.44444444   -0.44444444    0.22222222
    0.44444444   -0.44444444   -0.22222222
   -0.44444444    0.44444444    0.22222222
   -0.00000000   -0.00000000   -0.33333333
   -0.11111111   -0.00000000   -0.33333333
   -0.11111111   -0.00000000    0.33333333
    0.11111111    0.00000000   -0.33333333
   -0.22222222   -0.00000000   -0.33333333
   -0.22222222   -0.00000000    0.33333333
    0.22222222    0.00000000   -0.33333333
   -0.33333333   -0.00000000   -0.33333333
   -0.33333333   -0.00000000    0.33333333
    0.33333333    0.00000000   -0.33333333
   -0.44444444   -0.00000000   -0.33333333
   -0.44444444   -0.00000000    0.33333333
    0.44444444    0.00000000   -0.33333333
   -0.00000000   -0.11111111   -0.33333333
   -0.00000000   -0.11111111    0.33333333
    0.00000000    0.11111111   -0.33333333
   -0.11111111   -0.11111111   -0.33333333
   -0.11111111   -0.11111111    0.33333333
    0.11111111    0.11111111   -0.33333333
   -0.11111111    0.11111111   -0.33333333
    0.11111111   -0.11111111    0.33333333
    0.11111111   -0.11111111   -0.33333333
   -0.11111111    0.11111111    0.33333333
   -0.22222222   -0.11111111   -0.33333333
   -0.22222222   -0.11111111    0.33333333
    0.22222222    0.11111111   -0.33333333
   -0.22222222    0.11111111   -0.33333333
    0.22222222   -0.11111111    0.33333333
    0.22222222   -0.11111111   -0.33333333
   -0.22222222    0.11111111    0.33333333
   -0.33333333   -0.11111111   -0.33333333
   -0.33333333   -0.11111111    0.33333333
    0.33333333    0.11111111   -0.33333333
   -0.33333333    0.11111111   -0.33333333
    0.33333333   -0.11111111    0.33333333
    0.33333333   -0.11111111   -0.33333333
   -0.33333333    0.11111111    0.33333333
   -0.44444444   -0.11111111   -0.33333333
   -0.44444444   -0.11111111    0.33333333
    0.44444444    0.11111111   -0.33333333
   -0.44444444    0.11111111   -0.33333333
    0.44444444   -0.11111111    0.33333333
    0.44444444   -0.11111111   -0.33333333
   -0.44444444    0.11111111    0.33333333
   -0.00000000   -0.22222222   -0.33333333
   -0.00000000   -0.22222222    0.33333333
    0.00000000    0.22222222   -0.33333333
   -0.11111111   -0.22222222   -0.33333333
   -0.11111111   -0.22222222    0.33333333
    0.11111111    0.22222222   -0.33333333
   -0.11111111    0.22222222   -0.33333333
    0.11111111   -0.22222222    0.33333333
    0.11111111   -0.22222222   -0.33333333
   -0.11111111    0.22222222    0.33333333
   -0.22222222   -0.22222222   -0.33333333
   -0.22222222   -0.22222222    0.33333333
    0.22222222    0.22222222   -0.33333333
   -0.22222222    0.22222222   -0.33333333
    0.22222222   -0.22222222    0.33333333
    0.22222222   -0.22222222   -0.33333333
   -0.22222222    0.22222222    0.33333333
   -0.33333333   -0.22222222   -0.33333333
   -0.33333333   -0.22222222    0.33333333
    0.33333333    0.22222222   -0.33333333
   -0.33333333    0.22222222   -0.33333333
    0.33333333   -0.22222222    0.33333333
    0.33333333   -0.22222222   -0.33333333
   -0.33333333    0.22222222    0.33333333
   -0.44444444   -0.22222222   -0.33333333
   -0.44444444   -0.22222222    0.33333333
    0.44444444    0.22222222   -0.33333333
   -0.44444444    0.22222222   -0.33333333
    0.44444444   -0.22222222    0.33333333
    0.44444444   -0.22222222   -0.33333333
   -0.44444444    0.22222222    0.33333333
   -0.00000000   -0.33333333   -0.33333333
   -0.00000000   -0.33333333    0.33333333
    0.00000000    0.33333333   -0.33333333
   -0.11111111   -0.33333333   -0.33333333
   -0.11111111   -0.33333333    0.33333333
    0.11111111    0.33333333   -0.33333333
   -0.11111111    0.33333333   -0.33333333
    0.11111111   -0.33333333    0.33333333
    0.11111111   -0.33333333   -0.33333333
   -0.11111111    0.33333333    0.33333333
   -0.22222222   -0.33333333   -0.33333333
   -0.22222222   -0.33333333    0.33333333
    0.22222222    0.33333333   -0.33333333
   -0.22222222    0.33333333   -0.33333333
    0.22222222   -0.33333333    0.33333333
    0.22222222   -0.33333333   -0.33333333
   -0.22222222    0.33333333    0.33333333
   -0.33333333   -0.33333333   -0.33333333
   -0.33333333   -0.33333333    0.33333333
    0.33333333    0.33333333   -0.33333333
   -0.33333333    0.33333333   -0.33333333
    0.33333333   -0.33333333    0.33333333
    0.33333333   -0.33333333   -0.33333333
   -0.33333333    0.33333333    0.33333333
   -0.44444444   -0.33333333   -0.33333333
   -0.44444444   -0.33333333    0.33333333
    0.44444444    0.33333333   -0.33333333
   -0.44444444    0.33333333   -0.33333333
    0.44444444   -0.33333333    0.33333333
    0.44444444   -0.33333333   -0.33333333
   -0.44444444    0.33333333    0.33333333
   -0.00000000   -0.44444444   -0.33333333
   -0.00000000   -0.44444444    0.33333333
    0.00000000    0.44444444   -0.33333333
   -0.11111111   -0.44444444   -0.33333333
   -0.11111111   -0.44444444    0.33333333
    0.11111111    0.44444444   -0.33333333
   -0.11111111    0.44444444   -0.33333333
    0.11111111   -0.44444444    0.33333333
    0.11111111   -0.44444444   -0.33333333
   -0.11111111    0.44444444    0.33333333
   -0.22222222   -0.44444444   -0.33333333
   -0.22222222   -0.44444444    0.33333333
    0.22222222    0.44444444   -0.33333333
   -0.22222222    0.44444444   -0.33333333
    0.22222222   -0.44444444    0.33333333
    0.22222222   -0.44444444   -0.33333333
   -0.22222222    0.44444444    0.33333333
   -0.33333333   -0.44444444   -0.33333333
   -0.33333333   -0.44444444    0.33333333
    0.33333333    0.44444444   -0.33333333
   -0.33333333    0.44444444   -0.33333333
    0.33333333   -0.44444444    0.33333333
    0.33333333   -0.44444444   -0.33333333
   -0.33333333    0.44444444    0.33333333
   -0.44444444   -0.44444444   -0.33333333
   -0.44444444   -0.44444444    0.33333333
    0.44444444    0.44444444   -0.33333333
   -0.44444444    0.44444444   -0.33333333
    0.44444444   -0.44444444    0.33333333
    0.44444444   -0.44444444   -0.33333333
   -0.44444444    0.44444444    0.33333333
   -0.00000000   -0.00000000   -0.44444444
   -0.11111111   -0.00000000   -0.44444444
   -0.11111111   -0.00000000    0.44444444
    0.11111111    0.00000000   -0.44444444
   -0.22222222   -0.00000000   -0.44444444
   -0.22222222   -0.00000000    0.44444444
    0.22222222    0.00000000   -0.44444444
   -0.33333333   -0.00000000   -0.44444444
   -0.33333333   -0.00000000    0.44444444
    0.33333333    0.00000000   -0.44444444
   -0.44444444   -0.00000000   -0.44444444
   -0.44444444   -0.00000000    0.44444444
    0.44444444    0.00000000   -0.44444444
   -0.00000000   -0.11111111   -0.44444444
   -0.00000000   -0.11111111    0.44444444
    0.00000000    0.11111111   -0.44444444
   -0.11111111   -0.11111111   -0.44444444
   -0.11111111   -0.11111111    0.44444444
    0.11111111    0.11111111   -0.44444444
   -0.11111111    0.11111111   -0.44444444
    0.11111111   -0.11111111    0.44444444
    0.11111111   -0.11111111   -0.44444444
   -0.11111111    0.11111111    0.44444444
   -0.22222222   -0.11111111   -0.44444444
   -0.22222222   -0.11111111    0.44444444
    0.22222222    0.11111111   -0.44444444
   -0.22222222    0.11111111   -0.44444444
    0.22222222   -0.11111111    0.44444444
    0.22222222   -0.11111111   -0.44444444
   -0.22222222    0.11111111    0.44444444
   -0.33333333   -0.11111111   -0.44444444
   -0.33333333   -0.11111111    0.44444444
    0.33333333    0.11111111   -0.44444444
   -0.33333333    0.11111111   -0.44444444
    0.33333333   -0.11111111    0.44444444
    0.33333333   -0.11111111   -0.44444444
   -0.33333333    0.11111111    0.44444444
   -0.44444444   -0.11111111   -0.44444444
   -0.44444444   -0.11111111    0.44444444
    0.44444444    0.11111111   -0.44444444
   -0.44444444    0.11111111   -0.44444444
    0.44444444   -0.11111111    0.44444444
    0.44444444   -0.11111111   -0.44444444
   -0.44444444    0.11111111    0.44444444
   -0.00000000   -0.22222222   -0.44444444
   -0.00000000   -0.22222222    0.44444444
    0.00000000    0.22222222   -0.44444444
   -0.11111111   -0.22222222   -0.44444444
   -0.11111111   -0.22222222    0.44444444
    0.11111111    0.22222222   -0.44444444
   -0.11111111    0.22222222   -0.44444444
    0.11111111   -0.22222222    0.44444444
    0.11111111   -0.22222222   -0.44444444
   -0.11111111    0.22222222    0.44444444
   -0.22222222   -0.22222222   -0.44444444
   -0.22222222   -0.22222222    0.44444444
    0.22222222    0.22222222   -0.44444444
   -0.22222222    0.22222222   -0.44444444
    0.22222222   -0.22222222    0.44444444
    0.22222222   -0.22222222   -0.44444444
   -0.22222222    0.22222222    0.44444444
   -0.33333333   -0.22222222   -0.44444444
   -0.33333333   -0.22222222    0.44444444
    0.33333333    0.22222222   -0.44444444
   -0.33333333    0.22222222   -0.44444444
    0.33333333   -0.22222222    0.44444444
    0.33333333   -0.22222222   -0.44444444
   -0.33333333    0.22222222    0.44444444
   -0.44444444   -0.22222222   -0.44444444
   -0.44444444   -0.22222222    0.44444444
    0.44444444    0.22222222   -0.44444444
   -0.44444444    0.22222222   -0.44444444
    0.44444444   -0.22222222    0.44444444
    0.44444444   -0.22222222   -0.44444444
   -0.44444444    0.22222222    0.44444444
   -0.00000000   -0.33333333   -0.44444444
   -0.00000000   -0.33333333    0.44444444
    0.00000000    0.33333333   -0.44444444
   -0.11111111   -0.33333333   -0.44444444
   -0.11111111   -0.33333333    0.44444444
    0.11111111    0.33333333   -0.44444444
   -0.11111111    0.33333333   -0.44444444
    0.11111111   -0.33333333    0.44444444
    0.11111111   -0.33333333   -0.44444444
   -0.11111111    0.33333333    0.44444444
   -0.22222222   -0.33333333   -0.44444444
   -0.22222222   -0.33333333    0.44444444
    0.22222222    0.33333333   -0.44444444
   -0.22222222    0.33333333   -0.44444444
    0.22222222   -0.33333333    0.44444444
    0.22222222   -0.33333333   -0.44444444
   -0.22222222    0.33333333    0.44444444
   -0.33333333   -0.33333333   -0.44444444
   -0.33333333   -0.33333333    0.44444444
    0.33333333    0.33333333   -0.44444444
   -0.33333333    0.33333333   -0.44444444
    0.33333333   -0.33333333    0.44444444
    0.33333333   -0.33333333   -0.44444444
   -0.33333333    0.33333333    0.44444444
   -0.44444444   -0.33333333   -0.44444444
   -0.44444444   -0.33333333    0.44444444
    0.44444444    0.33333333   -0.44444444
   -0.44444444    0.33333333   -0.44444444
    0.44444444   -0.33333333    0.44444444
    0.44444444   -0.33333333   -0.44444444
   -0.44444444    0.33333333    0.44444444
   -0.00000000   -0.44444444   -0.44444444
   -0.00000000   -0.44444444    0.44444444
    0.00000000    0.44444444   -0.44444444
   -0.11111111   -0.44444444   -0.44444444
   -0.11111111   -0.44444444    0.44444444
    0.11111111    0.44444444   -0.44444444
   -0.11111111    0.44444444   -0.44444444
    0.11111111   -0.44444444    0.44444444
    0.11111111   -0.44444444   -0.44444444
   -0.11111111    0.44444444    0.44444444
   -0.22222222   -0.44444444   -0.44444444
   -0.22222222   -0.44444444    0.44444444
    0.22222222    0.44444444   -0.44444444
   -0.22222222    0.44444444   -0.44444444
    0.22222222   -0.44444444    0.44444444
    0.22222222   -0.44444444   -0.44444444
   -0.22222222    0.44444444    0.44444444
   -0.33333333   -0.44444444   -0.44444444
   -0.33333333   -0.44444444    0.44444444
    0.33333333    0.44444444   -0.44444444
   -0.33333333    0.44444444   -0.44444444
    0.33333333   -0.44444444    0.44444444
    0.33333333   -0.44444444   -0.44444444
   -0.33333333    0.44444444    0.44444444
   -0.44444444   -0.44444444   -0.44444444
   -0.44444444   -0.44444444    0.44444444
    0.44444444    0.44444444   -0.44444444
   -0.44444444    0.44444444   -0.44444444
    0.44444444   -0.44444444    0.44444444
    0.44444444   -0.44444444   -0.44444444
   -0.44444444    0.44444444    0.44444444
end kpoints

begin projections
    14
   0.50000    0.50000    0.50000     2  2  1
    0.0000000  0.0000000  1.0000000   1.0000000  0.0000000  0.0000000    1.00
   0.50000    0.50000    0.50000     2  3  1
    0.0000000  0.0000000  1.0000000   1.0000000  0.0000000  0.0000000    1.00
   0.50000    0.50000    0.50000     2  5  1
    0.0000000  0.0000000  1.0000000   1.0000000  0.0000000  0.0000000    1.00
   0.50000    0.50000    0.50000     2  1  1
    0.0000000  0.0000000  1.0000000   1.0000000  0.0000000  0.0000000    1.00
   0.50000    0.50000    0.50000     2  4  1
    0.0000000  0.0000000  1.0000000   1.0000000  0.0000000  0.0000000    1.00
   0.50000    0.50000    0.00000     1  1  1
    0.0000000  0.0000000  1.0000000   1.0000000  0.0000000  0.0000000    1.00
   0.50000    0.50000    0.00000     1  2  1
    0.0000000  0.0000000  1.0000000   1.0000000  0.0000000  0.0000000    1.00
   0.50000    0.50000    0.00000     1  3  1
    0.0000000  0.0000000  1.0000000   1.0000000  0.0000000  0.0000000    1.00
   0.00000    0.50000    0.50000     1  1  1
    0.0000000  0.0000000  1.0000000   1.0000000  0.0000000  0.0000000    1.00
   0.00000    0.50000    0.50000     1  2  1
    0.0000000  0.0000000  1.0000000   1.0000000  0.0000000  0.0000000    1.00
   0.00000    0.50000    0.50000     1  3  1
    0.0000000  0.0000000  1.0000000   1.0000000  0.0000000  0.0000000    1.00
   0.50000    0.00000    0.50000     1  1  1
    0.0000000  0.0000000  1.0000000   1.0000000  0.0000000  0.0000000    1.00
   0.50000    0.00000    0.50000     1  2  1
    0.0000000  0.0000000  1.0000000   1.0000000  0.0000000  0.0000000    1.00
   0.50000    0.00000    0.50000     1  3  1
    0.0000000  0.0000000  1.0000000   1.0000000  0.0000000  0.0000000    1.00
end projections

begin nnkpts
   6
     1    26      0   0   0
     1   182      0   0   0
     1     6      0   0   0
     1   130      0   0   0
     1     2      0   0   0
     1   126      0   0   0
     2    27      0   0   0
     2   185      0   0   0
     2     7      0   0   0
     2   133      0   0   0
     2     1      0   0   0
     2     3      0   0   0
     3    28      0   0   0
     3   188      0   0   0
     3     8      0   0   0
     3   136      0   0   0
     3     2      0   0   0
     3     4      0   0   0
     4    29      0   0   0
     4   191      0   0   0
     4     9      0   0   0
     4   139      0   0   0
     4     3      0   0   0
     4     5      0   0   0
     5    30      0   0   0
     5   194      0   0   0
     5    10      0   0   0
     5   142      0   0   0
     5     4      0   0   0
     5   129      1   0   0
     6    31      0   0   0
     6   197      0   0   0
     6     1      0   0   0
     6    11      0   0   0
     6     7      0   0   0
     6   132      0   0   0
     7    32      0   0   0
     7   200      0   0   0
     7     2      0   0   0
     7    12      0   0   0
     7     6      0   0   0
     7     8      0   0   0
     8    33      0   0   0
     8   207      0   0   0
     8     3      0   0   0
     8    13      0   0   0
     8     7      0   0   0
     8     9      0   0   0
     9    34      0   0   0
     9   214      0   0   0
     9     4      0   0   0
     9    14      0   0   0
     9     8      0   0   0
     9    10      0   0   0
    10    35      0   0   0
    10   221      0   0   0
    10     5      0   0   0
    10    15      0   0   0
    10     9      0   0   0
    10   141      1   0   0
    11    36      0   0   0
    11   228      0   0   0
    11     6      0   0   0
    11    16      0   0   0
    11    12      0   0   0
    11   145      0   0   0
    12    37      0   0   0
    12   231      0   0   0
    12     7      0   0   0
    12    17      0   0   0
    12    11      0   0   0
    12    13      0   0   0
    13    38      0   0   0
    13   238      0   0   0
    13     8      0   0   0
    13    18      0   0   0
    13    12      0   0   0
    13    14      0   0   0
    14    39      0   0   0
    14   245      0   0   0
    14     9      0   0   0
    14    19      0   0   0
    14    13      0   0   0
    14    15      0   0   0
    15    40      0   0   0
    15   252      0   0   0
    15    10      0   0   0
    15    20      0   0   0
    15    14      0   0   0
    15   154      1   0   0
    16    41      0   0   0
    16   259      0   0   0
    16    11      0   0   0
    16    21      0   0   0
    16    17      0   0   0
    16   158      0   0   0
    17    42      0   0   0
    17   262      0   0   0
    17    12      0   0   0
    17    22      0   0   0
    17    16      0   0   0
    17    18      0   0   0
    18    43      0   0   0
    18   269      0   0   0
    18    13      0   0   0
    18    23      0   0   0
    18    17      0   0   0
    18    19      0   0   0
    19    44      0   0   0
    19   276      0   0   0
    19    14      0   0   0
    19    24      0   0   0
    19    18      0   0   0
    19    20      0   0   0
    20    45      0   0   0
    20   283      0   0   0
    20    15      0   0   0
    20    25      0   0   0
    20    19      0   0   0
    20   167      1   0   0
    21    46      0   0   0
    21   290      0   0   0
    21    16      0   0   0
    21   169      0   1   0
    21    22      0   0   0
    21   171      0   0   0
    22    47      0   0   0
    22   293      0   0   0
    22    17      0   0   0
    22   172      0   1   0
    22    21      0   0   0
    22    23      0   0   0
    23    48      0   0   0
    23   300      0   0   0
    23    18      0   0   0
    23   175      0   1   0
    23    22      0   0   0
    23    24      0   0   0
    24    49      0   0   0
    24   307      0   0   0
    24    19      0   0   0
    24   178      0   1   0
    24    23      0   0   0
    24    25      0   0   0
    25    50      0   0   0
    25   314      0   0   0
    25    20      0   0   0
    25   181      0   1   0
    25    24      0   0   0
    25   180      1   0   0
    26     1      0   0   0
    26    51      0   0   0
    26    31      0   0   0
    26   196      0   0   0
    26    27      0   0   0
    26   184      0   0   0
    27     2      0   0   0
    27    52      0   0   0
    27    32      0   0   0
    27   202      0   0   0
    27    26      0   0   0
    27    28      0   0   0
    28     3      0   0   0
    28    53      0   0   0
    28    33      0   0   0
    28   209      0   0   0
    28    27      0   0   0
    28    29      0   0   0
    29     4      0   0   0
    29    54      0   0   0
    29    34      0   0   0
    29   216      0   0   0
    29    28      0   0   0
    29    30      0   0   0
    30     5      0   0   0
    30    55      0   0   0
    30    35      0   0   0
    30   223      0   0   0
    30    29      0   0   0
    30   193      1   0   0
    31     6      0   0   0
    31    56      0   0   0
    31    26      0   0   0
    31    36      0   0   0
    31    32      0   0   0
    31   204      0   0   0
    32     7      0   0   0
    32    57      0   0   0
    32    27      0   0   0
    32    37      0   0   0
    32    31      0   0   0
    32    33      0   0   0
    33     8      0   0   0
    33    58      0   0   0
    33    28      0   0   0
    33    38      0   0   0
    33    32      0   0   0
    33    34      0   0   0
    34     9      0   0   0
    34    59      0   0   0
    34    29      0   0   0
    34    39      0   0   0
    34    33      0   0   0
    34    35      0   0   0
    35    10      0   0   0
    35    60      0   0   0
    35    30      0   0   0
    35    40      0   0   0
    35    34      0   0   0
    35   225      1   0   0
    36    11      0   0   0
    36    61      0   0   0
    36    31      0   0   0
    36    41      0   0   0
    36    37      0   0   0
    36   235      0   0   0
    37    12      0   0   0
    37    62      0   0   0
    37    32      0   0   0
    37    42      0   0   0
    37    36      0   0   0
    37    38      0   0   0
    38    13      0   0   0
    38    63      0   0   0
    38    33      0   0   0
    38    43      0   0   0
    38    37      0   0   0
    38    39      0   0   0
    39    14      0   0   0
    39    64      0   0   0
    39    34      0   0   0
    39    44      0   0   0
    39    38      0   0   0
    39    40      0   0   0
    40    15      0   0   0
    40    65      0   0   0
    40    35      0   0   0
    40    45      0   0   0
    40    39      0   0   0
    40   256      1   0   0
    41    16      0   0   0
    41    66      0   0   0
    41    36      0   0   0
    41    46      0   0   0
    41    42      0   0   0
    41   266      0   0   0
    42    17      0   0   0
    42    67      0   0   0
    42    37      0   0   0
    42    47      0   0   0
    42    41      0   0   0
    42    43      0   0   0
    43    18      0   0   0
    43    68      0   0   0
    43    38      0   0   0
    43    48      0   0   0
    43    42      0   0   0
    43    44      0   0   0
    44    19      0   0   0
    44    69      0   0   0
    44    39      0   0   0
    44    49      0   0   0
    44    43      0   0   0
    44    45      0   0   0
    45    20      0   0   0
    45    70      0   0   0
    45    40      0   0   0
    45    50      0   0   0
    45    44      0   0   0
    45   287      1   0   0
    46    21      0   0   0
    46    71      0   0   0
    46    41      0   0   0
    46   289      0   1   0
    46    47      0   0   0
    46   297      0   0   0
    47    22      0   0   0
    47    72      0   0   0
    47    42      0   0   0
    47   295      0   1   0
    47    46      0   0   0
    47    48      0   0   0
    48    23      0   0   0
    48    73      0   0   0
    48    43      0   0   0
    48   302      0   1   0
    48    47      0   0   0
    48    49      0   0   0
    49    24      0   0   0
    49    74      0   0   0
    49    44      0   0   0
    49   309      0   1   0
    49    48      0   0   0
    49    50      0   0   0
    50    25      0   0   0
    50    75      0   0   0
    50    45      0   0   0
    50   316      0   1   0
    50    49      0   0   0
    50   318      1   0   0
    51    26      0   0   0
    51    76      0   0   0
    51    56      0   0   0
    51   333      0   0   0
    51    52      0   0   0
    51   321      0   0   0
    52    27      0   0   0
    52    77      0   0   0
    52    57      0   0   0
    52   339      0   0   0
    52    51      0   0   0
    52    53      0   0   0
    53    28      0   0   0
    53    78      0   0   0
    53    58      0   0   0
    53   346      0   0   0
    53    52      0   0   0
    53    54      0   0   0
    54    29      0   0   0
    54    79      0   0   0
    54    59      0   0   0
    54   353      0   0   0
    54    53      0   0   0
    54    55      0   0   0
    55    30      0   0   0
    55    80      0   0   0
    55    60      0   0   0
    55   360      0   0   0
    55    54      0   0   0
    55   330      1   0   0
    56    31      0   0   0
    56    81      0   0   0
    56    51      0   0   0
    56    61      0   0   0
    56    57      0   0   0
    56   341      0   0   0
    57    32      0   0   0
    57    82      0   0   0
    57    52      0   0   0
    57    62      0   0   0
    57    56      0   0   0
    57    58      0   0   0
    58    33      0   0   0
    58    83      0   0   0
    58    53      0   0   0
    58    63      0   0   0
    58    57      0   0   0
    58    59      0   0   0
    59    34      0   0   0
    59    84      0   0   0
    59    54      0   0   0
    59    64      0   0   0
    59    58      0   0   0
    59    60      0   0   0
    60    35      0   0   0
    60    85      0   0   0
    60    55      0   0   0
    60    65      0   0   0
    60    59      0   0   0
    60   362      1   0   0
    61    36      0   0   0
    61    86      0   0   0
    61    56      0   0   0
    61    66      0   0   0
    61    62      0   0   0
    61   372      0   0   0
    62    37      0   0   0
    62    87      0   0   0
    62    57      0   0   0
    62    67      0   0   0
    62    61      0   0   0
    62    63      0   0   0
    63    38      0   0   0
    63    88      0   0   0
    63    58      0   0   0
    63    68      0   0   0
    63    62      0   0   0
    63    64      0   0   0
    64    39      0   0   0
    64    89      0   0   0
    64    59      0   0   0
    64    69      0   0   0
    64    63      0   0   0
    64    65      0   0   0
    65    40      0   0   0
    65    90      0   0   0
    65    60      0   0   0
    65    70      0   0   0
    65    64      0   0   0
    65   393      1   0   0
    66    41      0   0   0
    66    91      0   0   0
    66    61      0   0   0
    66    71      0   0   0
    66    67      0   0   0
    66   403      0   0   0
    67    42      0   0   0
    67    92      0   0   0
    67    62      0   0   0
    67    72      0   0   0
    67    66      0   0   0
    67    68      0   0   0
    68    43      0   0   0
    68    93      0   0   0
    68    63      0   0   0
    68    73      0   0   0
    68    67      0   0   0
    68    69      0   0   0
    69    44      0   0   0
    69    94      0   0   0
    69    64      0   0   0
    69    74      0   0   0
    69    68      0   0   0
    69    70      0   0   0
    70    45      0   0   0
    70    95      0   0   0
    70    65      0   0   0
    70    75      0   0   0
    70    69      0   0   0
    70   424      1   0   0
    71    46      0   0   0
    71    96      0   0   0
    71    66      0   0   0
    71   426      0   1   0
    71    72      0   0   0
    71   434      0   0   0
    72    47      0   0   0
    72    97      0   0   0
    72    67      0   0   0
    72   432      0   1   0
    72    71      0   0   0
    72    73      0   0   0
    73    48      0   0   0
    73    98      0   0   0
    73    68      0   0   0
    73   439      0   1   0
    73    72      0   0   0
    73    74      0   0   0
    74    49      0   0   0
    74    99      0   0   0
    74    69      0   0   0
    74   446      0   1   0
    74    73      0   0   0
    74    75      0   0   0
    75    50      0   0   0
    75   100      0   0   0
    75    70      0   0   0
    75   453      0   1   0
    75    74      0   0   0
    75   455      1   0   0
    76    51      0   0   0
    76   101      0   0   0
    76    81      0   0   0
    76   470      0   0   0
    76    77      0   0   0
    76   458      0   0   0
    77    52      0   0   0
    77   102      0   0   0
    77    82      0   0   0
    77   476      0   0   0
    77    76      0   0   0
    77    78      0   0   0
    78    53      0   0   0
    78   103      0   0   0
    78    83      0   0   0
    78   483      0   0   0
    78    77      0   0   0
    78    79      0   0   0
    79    54      0   0   0
    79   104      0   0   0
    79    84      0   0   0
    79   490      0   0   0
    79    78      0   0   0
    79    80      0   0   0
    80    55      0   0   0
    80   105      0   0   0
    80    85      0   0   0
    80   497      0   0   0
    80    79      0   0   0
    80   467      1   0   0
    81    56      0   0   0
    81   106      0   0   0
    81    76      0   0   0
    81    86      0   0   0
    81    82      0   0   0
    81   478      0   0   0
    82    57      0   0   0
    82   107      0   0   0
    82    77      0   0   0
    82    87      0   0   0
    82    81      0   0   0
    82    83      0   0   0
    83    58      0   0   0
    83   108      0   0   0
    83    78      0   0   0
    83    88      0   0   0
    83    82      0   0   0
    83    84      0   0   0
    84    59      0   0   0
    84   109      0   0   0
    84    79      0   0   0
    84    89      0   0   0
    84    83      0   0   0
    84    85      0   0   0
    85    60      0   0   0
    85   110      0   0   0
    85    80      0   0   0
    85    90      0   0   0
    85    84      0   0   0
    85   499      1   0   0
    86    61      0   0   0
    86   111      0   0   0
    86    81      0   0   0
    86    91      0   0   0
    86    87      0   0   0
    86   509      0   0   0
    87    62      0   0   0
    87   112      0   0   0
    87    82      0   0   0
    87    92      0   0   0
    87    86      0   0   0
    87    88      0   0   0
    88    63      0   0   0
    88   113      0   0   0
    88    83      0   0   0
    88    93      0   0   0
    88    87      0   0   0
    88    89      0   0   0
    89    64      0   0   0
    89   114      0   0   0
    89    84      0   0   0
    89    94      0   0   0
    89    88      0   0   0
    89    90      0   0   0
    90    65      0   0   0
    90   115      0   0   0
    90    85      0   0   0
    90    95      0   0   0
    90    89      0   0   0
    90   530      1   0   0
    91    66      0   0   0
    91   116      0   0   0
    91    86      0   0   0
    91    96      0   0   0
    91    92      0   0   0
    91   540      0   0   0
    92    67      0   0   0
    92   117      0   0   0
    92    87      0   0   0
    92    97      0   0   0
    92    91      0   0   0
    92    93      0   0   0
    93    68      0   0   0
    93   118      0   0   0
    93    88      0   0   0
    93    98      0   0   0
    93    92      0   0   0
    93    94      0   0   0
    94    69      0   0   0
    94   119      0   0   0
    94    89      0   0   0
    94    99      0   0   0
    94    93      0   0   0
    94    95      0   0   0
    95    70      0   0   0
    95   120      0   0   0
    95    90      0   0   0
    95   100      0   0   0
    95    94      0   0   0
    95   561      1   0   0
    96    71      0   0   0
    96   121      0   0   0
    96    91      0   0   0
    96   563      0   1   0
    96    97      0   0   0
    96   571      0   0   0
    97    72      0   0   0
    97   122      0   0   0
    97    92      0   0   0
    97   569      0   1   0
    97    96      0   0   0
    97    98      0   0   0
    98    73      0   0   0
    98   123      0   0   0
    98    93      0   0   0
    98   576      0   1   0
    98    97      0   0   0
    98    99      0   0   0
    99    74      0   0   0
    99   124      0   0   0
    99    94      0   0   0
    99   583      0   1   0
    99    98      0   0   0
    99   100      0   0   0
   100    75      0   0   0
   100   125      0   0   0
   100    95      0   0   0
   100   590      0   1   0
   100    99      0   0   0
   100   592      1   0   0
   101    76      0   0   0
   101   593      0   0   1
   101   106      0   0   0
   101   607      0   0   0
   101   102      0   0   0
   101   595      0   0   0
   102    77      0   0   0
   102   596      0   0   1
   102   107      0   0   0
   102   613      0   0   0
   102   101      0   0   0
   102   103      0   0   0
   103    78      0   0   0
   103   599      0   0   1
   103   108      0   0   0
   103   620      0   0   0
   103   102      0   0   0
   103   104      0   0   0
   104    79      0   0   0
   104   602      0   0   1
   104   109      0   0   0
   104   627      0   0   0
   104   103      0   0   0
   104   105      0   0   0
   105    80      0   0   0
   105   605      0   0   1
   105   110      0   0   0
   105   634      0   0   0
   105   104      0   0   0
   105   604      1   0   0
   106    81      0   0   0
   106   608      0   0   1
   106   101      0   0   0
   106   111      0   0   0
   106   107      0   0   0
   106   615      0   0   0
   107    82      0   0   0
   107   611      0   0   1
   107   102      0   0   0
   107   112      0   0   0
   107   106      0   0   0
   107   108      0   0   0
   108    83      0   0   0
   108   618      0   0   1
   108   103      0   0   0
   108   113      0   0   0
   108   107      0   0   0
   108   109      0   0   0
   109    84      0   0   0
   109   625      0   0   1
   109   104      0   0   0
   109   114      0   0   0
   109   108      0   0   0
   109   110      0   0   0
   110    85      0   0   0
   110   632      0   0   1
   110   105      0   0   0
   110   115      0   0   0
   110   109      0   0   0
   110   636      1   0   0
   111    86      0   0   0
   111   639      0   0   1
   111   106      0   0   0
   111   116      0   0   0
   111   112      0   0   0
   111   646      0   0   0
   112    87      0   0   0
   112   642      0   0   1
   112   107      0   0   0
   112   117      0   0   0
   112   111      0   0   0
   112   113      0   0   0
   113    88      0   0   0
   113   649      0   0   1
   113   108      0   0   0
   113   118      0   0   0
   113   112      0   0   0
   113   114      0   0   0
   114    89      0   0   0
   114   656      0   0   1
   114   109      0   0   0
   114   119      0   0   0
   114   113      0   0   0
   114   115      0   0   0
   115    90      0   0   0
   115   663      0   0   1
   115   110      0   0   0
   115   120      0   0   0
   115   114      0   0   0
   115   667      1   0   0
   116    91      0   0   0
   116   670      0   0   1
   116   111      0   0   0
   116   121      0   0   0
   116   117      0   0   0
   116   677      0   0   0
   117    92      0   0   0
   117   673      0   0   1
   117   112      0   0   0
   117   122      0   0   0
   117   116      0   0   0
   117   118      0   0   0
   118    93      0   0   0
   118   680      0   0   1
   118   113      0   0   0
   118   123      0   0   0
   118   117      0   0   0
   118   119      0   0   0
   119    94      0   0   0
   119   687      0   0   1
   119   114      0   0   0
   119   124      0   0   0
   119   118      0   0   0
   119   120      0   0   0
   120    95      0   0   0
   120   694      0   0   1
   120   115      0   0   0
   120   125      0   0   0
   120   119      0   0   0
   120   698      1   0   0
   121    96      0   0   0
   121   701      0   0   1
   121   116      0   0   0
   121   700      0   1   0
   121   122      0   0   0
   121   708      0   0   0
   122    97      0   0   0
   122   704      0   0   1
   122   117      0   0   0
   122   706      0   1   0
   122   121      0   0   0
   122   123      0   0   0
   123    98      0   0   0
   123   711      0   0   1
   123   118      0   0   0
   123   713      0   1   0
   123   122      0   0   0
   123   124      0   0   0
   124    99      0   0   0
   124   718      0   0   1
   124   119      0   0   0
   124   720      0   1   0
   124   123      0   0   0
   124   125      0   0   0
   125   100      0   0   0
   125   725      0   0   1
   125   120      0   0   0
   125   727      0   1   0
   125   124      0   0   0
   125   729      1   0   0
   126   183      0   0   0
   126   184      0   0   0
   126   131      0   0   0
   126   132      0   0   0
   126     1      0   0   0
   126   127      0   0   0
   127   186      0   0   0
   127   187      0   0   0
   127   134      0   0   0
   127   135      0   0   0
   127   126      0   0   0
   127   128      0   0   0
   128   189      0   0   0
   128   190      0   0   0
   128   137      0   0   0
   128   138      0   0   0
   128   127      0   0   0
   128   129      0   0   0
   129   192      0   0   0
   129   193      0   0   0
   129   140      0   0   0
   129   141      0   0   0
   129   128      0   0   0
   129     5     -1   0   0
   130   195      0   0   0
   130   196      0   0   0
   130     1      0   0   0
   130   143      0   0   0
   130   131      0   0   0
   130   133      0   0   0
   131   198      0   0   0
   131   199      0   0   0
   131   126      0   0   0
   131   144      0   0   0
   131   130      0   0   0
   131   134      0   0   0
   132   201      0   0   0
   132   204      0   0   0
   132   126      0   0   0
   132   145      0   0   0
   132     6      0   0   0
   132   135      0   0   0
   133   202      0   0   0
   133   203      0   0   0
   133     2      0   0   0
   133   146      0   0   0
   133   130      0   0   0
   133   136      0   0   0
   134   205      0   0   0
   134   206      0   0   0
   134   127      0   0   0
   134   147      0   0   0
   134   131      0   0   0
   134   137      0   0   0
   135   208      0   0   0
   135   211      0   0   0
   135   127      0   0   0
   135   148      0   0   0
   135   132      0   0   0
   135   138      0   0   0
   136   209      0   0   0
   136   210      0   0   0
   136     3      0   0   0
   136   149      0   0   0
   136   133      0   0   0
   136   139      0   0   0
   137   212      0   0   0
   137   213      0   0   0
   137   128      0   0   0
   137   150      0   0   0
   137   134      0   0   0
   137   140      0   0   0
   138   215      0   0   0
   138   218      0   0   0
   138   128      0   0   0
   138   151      0   0   0
   138   135      0   0   0
   138   141      0   0   0
   139   216      0   0   0
   139   217      0   0   0
   139     4      0   0   0
   139   152      0   0   0
   139   136      0   0   0
   139   142      0   0   0
   140   219      0   0   0
   140   220      0   0   0
   140   129      0   0   0
   140   153      0   0   0
   140   137      0   0   0
   140   142     -1   0   0
   141   222      0   0   0
   141   225      0   0   0
   141   129      0   0   0
   141   154      0   0   0
   141   138      0   0   0
   141    10     -1   0   0
   142   223      0   0   0
   142   224      0   0   0
   142     5      0   0   0
   142   155      0   0   0
   142   139      0   0   0
   142   140      1   0   0
   143   226      0   0   0
   143   227      0   0   0
   143   130      0   0   0
   143   156      0   0   0
   143   144      0   0   0
   143   146      0   0   0
   144   229      0   0   0
   144   230      0   0   0
   144   131      0   0   0
   144   157      0   0   0
   144   143      0   0   0
   144   147      0   0   0
   145   232      0   0   0
   145   235      0   0   0
   145   132      0   0   0
   145   158      0   0   0
   145    11      0   0   0
   145   148      0   0   0
   146   233      0   0   0
   146   234      0   0   0
   146   133      0   0   0
   146   159      0   0   0
   146   143      0   0   0
   146   149      0   0   0
   147   236      0   0   0
   147   237      0   0   0
   147   134      0   0   0
   147   160      0   0   0
   147   144      0   0   0
   147   150      0   0   0
   148   239      0   0   0
   148   242      0   0   0
   148   135      0   0   0
   148   161      0   0   0
   148   145      0   0   0
   148   151      0   0   0
   149   240      0   0   0
   149   241      0   0   0
   149   136      0   0   0
   149   162      0   0   0
   149   146      0   0   0
   149   152      0   0   0
   150   243      0   0   0
   150   244      0   0   0
   150   137      0   0   0
   150   163      0   0   0
   150   147      0   0   0
   150   153      0   0   0
   151   246      0   0   0
   151   249      0   0   0
   151   138      0   0   0
   151   164      0   0   0
   151   148      0   0   0
   151   154      0   0   0
   152   247      0   0   0
   152   248      0   0   0
   152   139      0   0   0
   152   165      0   0   0
   152   149      0   0   0
   152   155      0   0   0
   153   250      0   0   0
   153   251      0   0   0
   153   140      0   0   0
   153   166      0   0   0
   153   150      0   0   0
   153   155     -1   0   0
   154   253      0   0   0
   154   256      0   0   0
   154   141      0   0   0
   154   167      0   0   0
   154   151      0   0   0
   154    15     -1   0   0
   155   254      0   0   0
   155   255      0   0   0
   155   142      0   0   0
   155   168      0   0   0
   155   152      0   0   0
   155   153      1   0   0
   156   257      0   0   0
   156   258      0   0   0
   156   143      0   0   0
   156   169      0   0   0
   156   157      0   0   0
   156   159      0   0   0
   157   260      0   0   0
   157   261      0   0   0
   157   144      0   0   0
   157   170      0   0   0
   157   156      0   0   0
   157   160      0   0   0
   158   263      0   0   0
   158   266      0   0   0
   158   145      0   0   0
   158   171      0   0   0
   158    16      0   0   0
   158   161      0   0   0
   159   264      0   0   0
   159   265      0   0   0
   159   146      0   0   0
   159   172      0   0   0
   159   156      0   0   0
   159   162      0   0   0
   160   267      0   0   0
   160   268      0   0   0
   160   147      0   0   0
   160   173      0   0   0
   160   157      0   0   0
   160   163      0   0   0
   161   270      0   0   0
   161   273      0   0   0
   161   148      0   0   0
   161   174      0   0   0
   161   158      0   0   0
   161   164      0   0   0
   162   271      0   0   0
   162   272      0   0   0
   162   149      0   0   0
   162   175      0   0   0
   162   159      0   0   0
   162   165      0   0   0
   163   274      0   0   0
   163   275      0   0   0
   163   150      0   0   0
   163   176      0   0   0
   163   160      0   0   0
   163   166      0   0   0
   164   277      0   0   0
   164   280      0   0   0
   164   151      0   0   0
   164   177      0   0   0
   164   161      0   0   0
   164   167      0   0   0
   165   278      0   0   0
   165   279      0   0   0
   165   152      0   0   0
   165   178      0   0   0
   165   162      0   0   0
   165   168      0   0   0
   166   281      0   0   0
   166   282      0   0   0
   166   153      0   0   0
   166   179      0   0   0
   166   163      0   0   0
   166   168     -1   0   0
   167   284      0   0   0
   167   287      0   0   0
   167   154      0   0   0
   167   180      0   0   0
   167   164      0   0   0
   167    20     -1   0   0
   168   285      0   0   0
   168   286      0   0   0
   168   155      0   0   0
   168   181      0   0   0
   168   165      0   0   0
   168   166      1   0   0
   169   288      0   0   0
   169   289      0   0   0
   169   156      0   0   0
   169    21      0  -1   0
   169   170      0   0   0
   169   172      0   0   0
   170   291      0   0   0
   170   292      0   0   0
   170   157      0   0   0
   170   171      0  -1   0
   170   169      0   0   0
   170   173      0   0   0
   171   294      0   0   0
   171   297      0   0   0
   171   158      0   0   0
   171   170      0   1   0
   171    21      0   0   0
   171   174      0   0   0
   172   295      0   0   0
   172   296      0   0   0
   172   159      0   0   0
   172    22      0  -1   0
   172   169      0   0   0
   172   175      0   0   0
   173   298      0   0   0
   173   299      0   0   0
   173   160      0   0   0
   173   174      0  -1   0
   173   170      0   0   0
   173   176      0   0   0
   174   301      0   0   0
   174   304      0   0   0
   174   161      0   0   0
   174   173      0   1   0
   174   171      0   0   0
   174   177      0   0   0
   175   302      0   0   0
   175   303      0   0   0
   175   162      0   0   0
   175    23      0  -1   0
   175   172      0   0   0
   175   178      0   0   0
   176   305      0   0   0
   176   306      0   0   0
   176   163      0   0   0
   176   177      0  -1   0
   176   173      0   0   0
   176   179      0   0   0
   177   308      0   0   0
   177   311      0   0   0
   177   164      0   0   0
   177   176      0   1   0
   177   174      0   0   0
   177   180      0   0   0
   178   309      0   0   0
   178   310      0   0   0
   178   165      0   0   0
   178    24      0  -1   0
   178   175      0   0   0
   178   181      0   0   0
   179   312      0   0   0
   179   313      0   0   0
   179   166      0   0   0
   179   180      0  -1   0
   179   176      0   0   0
   179   181     -1   0   0
   180   315      0   0   0
   180   318      0   0   0
   180   167      0   0   0
   180   179      0   1   0
   180   177      0   0   0
   180    25     -1   0   0
   181   316      0   0   0
   181   317      0   0   0
   181   168      0   0   0
   181    25      0  -1   0
   181   178      0   0   0
   181   179      1   0   0
   182     1      0   0   0
   182   319      0   0   0
   182   195      0   0   0
   182   197      0   0   0
   182   183      0   0   0
   182   185      0   0   0
   183   126      0   0   0
   183   320      0   0   0
   183   198      0   0   0
   183   201      0   0   0
   183   182      0   0   0
   183   186      0   0   0
   184   126      0   0   0
   184   321      0   0   0
   184   199      0   0   0
   184   204      0   0   0
   184    26      0   0   0
   184   187      0   0   0
   185     2      0   0   0
   185   322      0   0   0
   185   200      0   0   0
   185   203      0   0   0
   185   182      0   0   0
   185   188      0   0   0
   186   127      0   0   0
   186   323      0   0   0
   186   205      0   0   0
   186   208      0   0   0
   186   183      0   0   0
   186   189      0   0   0
   187   127      0   0   0
   187   324      0   0   0
   187   206      0   0   0
   187   211      0   0   0
   187   184      0   0   0
   187   190      0   0   0
   188     3      0   0   0
   188   325      0   0   0
   188   207      0   0   0
   188   210      0   0   0
   188   185      0   0   0
   188   191      0   0   0
   189   128      0   0   0
   189   326      0   0   0
   189   212      0   0   0
   189   215      0   0   0
   189   186      0   0   0
   189   192      0   0   0
   190   128      0   0   0
   190   327      0   0   0
   190   213      0   0   0
   190   218      0   0   0
   190   187      0   0   0
   190   193      0   0   0
   191     4      0   0   0
   191   328      0   0   0
   191   214      0   0   0
   191   217      0   0   0
   191   188      0   0   0
   191   194      0   0   0
   192   129      0   0   0
   192   329      0   0   0
   192   219      0   0   0
   192   222      0   0   0
   192   189      0   0   0
   192   194     -1   0   0
   193   129      0   0   0
   193   330      0   0   0
   193   220      0   0   0
   193   225      0   0   0
   193   190      0   0   0
   193    30     -1   0   0
   194     5      0   0   0
   194   331      0   0   0
   194   221      0   0   0
   194   224      0   0   0
   194   191      0   0   0
   194   192      1   0   0
   195   130      0   0   0
   195   332      0   0   0
   195   182      0   0   0
   195   226      0   0   0
   195   198      0   0   0
   195   203      0   0   0
   196   130      0   0   0
   196   333      0   0   0
   196    26      0   0   0
   196   227      0   0   0
   196   199      0   0   0
   196   202      0   0   0
   197     6      0   0   0
   197   334      0   0   0
   197   182      0   0   0
   197   228      0   0   0
   197   200      0   0   0
   197   201      0   0   0
   198   131      0   0   0
   198   335      0   0   0
   198   183      0   0   0
   198   229      0   0   0
   198   195      0   0   0
   198   205      0   0   0
   199   131      0   0   0
   199   336      0   0   0
   199   184      0   0   0
   199   230      0   0   0
   199   196      0   0   0
   199   206      0   0   0
   200     7      0   0   0
   200   337      0   0   0
   200   185      0   0   0
   200   231      0   0   0
   200   197      0   0   0
   200   207      0   0   0
   201   132      0   0   0
   201   338      0   0   0
   201   183      0   0   0
   201   232      0   0   0
   201   197      0   0   0
   201   208      0   0   0
   202   133      0   0   0
   202   339      0   0   0
   202    27      0   0   0
   202   233      0   0   0
   202   196      0   0   0
   202   209      0   0   0
   203   133      0   0   0
   203   340      0   0   0
   203   185      0   0   0
   203   234      0   0   0
   203   195      0   0   0
   203   210      0   0   0
   204   132      0   0   0
   204   341      0   0   0
   204   184      0   0   0
   204   235      0   0   0
   204    31      0   0   0
   204   211      0   0   0
   205   134      0   0   0
   205   342      0   0   0
   205   186      0   0   0
   205   236      0   0   0
   205   198      0   0   0
   205   212      0   0   0
   206   134      0   0   0
   206   343      0   0   0
   206   187      0   0   0
   206   237      0   0   0
   206   199      0   0   0
   206   213      0   0   0
   207     8      0   0   0
   207   344      0   0   0
   207   188      0   0   0
   207   238      0   0   0
   207   200      0   0   0
   207   214      0   0   0
   208   135      0   0   0
   208   345      0   0   0
   208   186      0   0   0
   208   239      0   0   0
   208   201      0   0   0
   208   215      0   0   0
   209   136      0   0   0
   209   346      0   0   0
   209    28      0   0   0
   209   240      0   0   0
   209   202      0   0   0
   209   216      0   0   0
   210   136      0   0   0
   210   347      0   0   0
   210   188      0   0   0
   210   241      0   0   0
   210   203      0   0   0
   210   217      0   0   0
   211   135      0   0   0
   211   348      0   0   0
   211   187      0   0   0
   211   242      0   0   0
   211   204      0   0   0
   211   218      0   0   0
   212   137      0   0   0
   212   349      0   0   0
   212   189      0   0   0
   212   243      0   0   0
   212   205      0   0   0
   212   219      0   0   0
   213   137      0   0   0
   213   350      0   0   0
   213   190      0   0   0
   213   244      0   0   0
   213   206      0   0   0
   213   220      0   0   0
   214     9      0   0   0
   214   351      0   0   0
   214   191      0   0   0
   214   245      0   0   0
   214   207      0   0   0
   214   221      0   0   0
   215   138      0   0   0
   215   352      0   0   0
   215   189      0   0   0
   215   246      0   0   0
   215   208      0   0   0
   215   222      0   0   0
   216   139      0   0   0
   216   353      0   0   0
   216    29      0   0   0
   216   247      0   0   0
   216   209      0   0   0
   216   223      0   0   0
   217   139      0   0   0
   217   354      0   0   0
   217   191      0   0   0
   217   248      0   0   0
   217   210      0   0   0
   217   224      0   0   0
   218   138      0   0   0
   218   355      0   0   0
   218   190      0   0   0
   218   249      0   0   0
   218   211      0   0   0
   218   225      0   0   0
   219   140      0   0   0
   219   356      0   0   0
   219   192      0   0   0
   219   250      0   0   0
   219   212      0   0   0
   219   224     -1   0   0
   220   140      0   0   0
   220   357      0   0   0
   220   193      0   0   0
   220   251      0   0   0
   220   213      0   0   0
   220   223     -1   0   0
   221    10      0   0   0
   221   358      0   0   0
   221   194      0   0   0
   221   252      0   0   0
   221   214      0   0   0
   221   222      1   0   0
   222   141      0   0   0
   222   359      0   0   0
   222   192      0   0   0
   222   253      0   0   0
   222   215      0   0   0
   222   221     -1   0   0
   223   142      0   0   0
   223   360      0   0   0
   223    30      0   0   0
   223   254      0   0   0
   223   216      0   0   0
   223   220      1   0   0
   224   142      0   0   0
   224   361      0   0   0
   224   194      0   0   0
   224   255      0   0   0
   224   217      0   0   0
   224   219      1   0   0
   225   141      0   0   0
   225   362      0   0   0
   225   193      0   0   0
   225   256      0   0   0
   225   218      0   0   0
   225    35     -1   0   0
   226   143      0   0   0
   226   363      0   0   0
   226   195      0   0   0
   226   257      0   0   0
   226   229      0   0   0
   226   234      0   0   0
   227   143      0   0   0
   227   364      0   0   0
   227   196      0   0   0
   227   258      0   0   0
   227   230      0   0   0
   227   233      0   0   0
   228    11      0   0   0
   228   365      0   0   0
   228   197      0   0   0
   228   259      0   0   0
   228   231      0   0   0
   228   232      0   0   0
   229   144      0   0   0
   229   366      0   0   0
   229   198      0   0   0
   229   260      0   0   0
   229   226      0   0   0
   229   236      0   0   0
   230   144      0   0   0
   230   367      0   0   0
   230   199      0   0   0
   230   261      0   0   0
   230   227      0   0   0
   230   237      0   0   0
   231    12      0   0   0
   231   368      0   0   0
   231   200      0   0   0
   231   262      0   0   0
   231   228      0   0   0
   231   238      0   0   0
   232   145      0   0   0
   232   369      0   0   0
   232   201      0   0   0
   232   263      0   0   0
   232   228      0   0   0
   232   239      0   0   0
   233   146      0   0   0
   233   370      0   0   0
   233   202      0   0   0
   233   264      0   0   0
   233   227      0   0   0
   233   240      0   0   0
   234   146      0   0   0
   234   371      0   0   0
   234   203      0   0   0
   234   265      0   0   0
   234   226      0   0   0
   234   241      0   0   0
   235   145      0   0   0
   235   372      0   0   0
   235   204      0   0   0
   235   266      0   0   0
   235    36      0   0   0
   235   242      0   0   0
   236   147      0   0   0
   236   373      0   0   0
   236   205      0   0   0
   236   267      0   0   0
   236   229      0   0   0
   236   243      0   0   0
   237   147      0   0   0
   237   374      0   0   0
   237   206      0   0   0
   237   268      0   0   0
   237   230      0   0   0
   237   244      0   0   0
   238    13      0   0   0
   238   375      0   0   0
   238   207      0   0   0
   238   269      0   0   0
   238   231      0   0   0
   238   245      0   0   0
   239   148      0   0   0
   239   376      0   0   0
   239   208      0   0   0
   239   270      0   0   0
   239   232      0   0   0
   239   246      0   0   0
   240   149      0   0   0
   240   377      0   0   0
   240   209      0   0   0
   240   271      0   0   0
   240   233      0   0   0
   240   247      0   0   0
   241   149      0   0   0
   241   378      0   0   0
   241   210      0   0   0
   241   272      0   0   0
   241   234      0   0   0
   241   248      0   0   0
   242   148      0   0   0
   242   379      0   0   0
   242   211      0   0   0
   242   273      0   0   0
   242   235      0   0   0
   242   249      0   0   0
   243   150      0   0   0
   243   380      0   0   0
   243   212      0   0   0
   243   274      0   0   0
   243   236      0   0   0
   243   250      0   0   0
   244   150      0   0   0
   244   381      0   0   0
   244   213      0   0   0
   244   275      0   0   0
   244   237      0   0   0
   244   251      0   0   0
   245    14      0   0   0
   245   382      0   0   0
   245   214      0   0   0
   245   276      0   0   0
   245   238      0   0   0
   245   252      0   0   0
   246   151      0   0   0
   246   383      0   0   0
   246   215      0   0   0
   246   277      0   0   0
   246   239      0   0   0
   246   253      0   0   0
   247   152      0   0   0
   247   384      0   0   0
   247   216      0   0   0
   247   278      0   0   0
   247   240      0   0   0
   247   254      0   0   0
   248   152      0   0   0
   248   385      0   0   0
   248   217      0   0   0
   248   279      0   0   0
   248   241      0   0   0
   248   255      0   0   0
   249   151      0   0   0
   249   386      0   0   0
   249   218      0   0   0
   249   280      0   0   0
   249   242      0   0   0
   249   256      0   0   0
   250   153      0   0   0
   250   387      0   0   0
   250   219      0   0   0
   250   281      0   0   0
   250   243      0   0   0
   250   255     -1   0   0
   251   153      0   0   0
   251   388      0   0   0
   251   220      0   0   0
   251   282      0   0   0
   251   244      0   0   0
   251   254     -1   0   0
   252    15      0   0   0
   252   389      0   0   0
   252   221      0   0   0
   252   283      0   0   0
   252   245      0   0   0
   252   253      1   0   0
   253   154      0   0   0
   253   390      0   0   0
   253   222      0   0   0
   253   284      0   0   0
   253   246      0   0   0
   253   252     -1   0   0
   254   155      0   0   0
   254   391      0   0   0
   254   223      0   0   0
   254   285      0   0   0
   254   247      0   0   0
   254   251      1   0   0
   255   155      0   0   0
   255   392      0   0   0
   255   224      0   0   0
   255   286      0   0   0
   255   248      0   0   0
   255   250      1   0   0
   256   154      0   0   0
   256   393      0   0   0
   256   225      0   0   0
   256   287      0   0   0
   256   249      0   0   0
   256    40     -1   0   0
   257   156      0   0   0
   257   394      0   0   0
   257   226      0   0   0
   257   288      0   0   0
   257   260      0   0   0
   257   265      0   0   0
   258   156      0   0   0
   258   395      0   0   0
   258   227      0   0   0
   258   289      0   0   0
   258   261      0   0   0
   258   264      0   0   0
   259    16      0   0   0
   259   396      0   0   0
   259   228      0   0   0
   259   290      0   0   0
   259   262      0   0   0
   259   263      0   0   0
   260   157      0   0   0
   260   397      0   0   0
   260   229      0   0   0
   260   291      0   0   0
   260   257      0   0   0
   260   267      0   0   0
   261   157      0   0   0
   261   398      0   0   0
   261   230      0   0   0
   261   292      0   0   0
   261   258      0   0   0
   261   268      0   0   0
   262    17      0   0   0
   262   399      0   0   0
   262   231      0   0   0
   262   293      0   0   0
   262   259      0   0   0
   262   269      0   0   0
   263   158      0   0   0
   263   400      0   0   0
   263   232      0   0   0
   263   294      0   0   0
   263   259      0   0   0
   263   270      0   0   0
   264   159      0   0   0
   264   401      0   0   0
   264   233      0   0   0
   264   295      0   0   0
   264   258      0   0   0
   264   271      0   0   0
   265   159      0   0   0
   265   402      0   0   0
   265   234      0   0   0
   265   296      0   0   0
   265   257      0   0   0
   265   272      0   0   0
   266   158      0   0   0
   266   403      0   0   0
   266   235      0   0   0
   266   297      0   0   0
   266    41      0   0   0
   266   273      0   0   0
   267   160      0   0   0
   267   404      0   0   0
   267   236      0   0   0
   267   298      0   0   0
   267   260      0   0   0
   267   274      0   0   0
   268   160      0   0   0
   268   405      0   0   0
   268   237      0   0   0
   268   299      0   0   0
   268   261      0   0   0
   268   275      0   0   0
   269    18      0   0   0
   269   406      0   0   0
   269   238      0   0   0
   269   300      0   0   0
   269   262      0   0   0
   269   276      0   0   0
   270   161      0   0   0
   270   407      0   0   0
   270   239      0   0   0
   270   301      0   0   0
   270   263      0   0   0
   270   277      0   0   0
   271   162      0   0   0
   271   408      0   0   0
   271   240      0   0   0
   271   302      0   0   0
   271   264      0   0   0
   271   278      0   0   0
   272   162      0   0   0
   272   409      0   0   0
   272   241      0   0   0
   272   303      0   0   0
   272   265      0   0   0
   272   279      0   0   0
   273   161      0   0   0
   273   410      0   0   0
   273   242      0   0   0
   273   304      0   0   0
   273   266      0   0   0
   273   280      0   0   0
   274   163      0   0   0
   274   411      0   0   0
   274   243      0   0   0
   274   305      0   0   0
   274   267      0   0   0
   274   281      0   0   0
   275   163      0   0   0
   275   412      0   0   0
   275   244      0   0   0
   275   306      0   0   0
   275   268      0   0   0
   275   282      0   0   0
   276    19      0   0   0
   276   413      0   0   0
   276   245      0   0   0
   276   307      0   0   0
   276   269      0   0   0
   276   283      0   0   0
   277   164      0   0   0
   277   414      0   0   0
   277   246      0   0   0
   277   308      0   0   0
[...]
   611   642      0   0   0
   611   608      0   0   0
   611   618      0   0   0
   612   475      0   0   0
   612   615      0   0  -1
   612   594      0   0   0
   612   643      0   0   0
   612   608      0   0   0
   612   619      0   0   0
   613   476      0   0   0
   613   614      0   0   1
   613   102      0   0   0
   613   644      0   0   0
   613   607      0   0   0
   613   620      0   0   0
   614   477      0   0   0
   614   613      0   0  -1
   614   596      0   0   0
   614   645      0   0   0
   614   606      0   0   0
   614   621      0   0   0
   615   478      0   0   0
   615   612      0   0   1
   615   595      0   0   0
   615   646      0   0   0
   615   106      0   0   0
   615   622      0   0   0
   616   479      0   0   0
   616   617      0   0  -1
   616   597      0   0   0
   616   647      0   0   0
   616   609      0   0   0
   616   623      0   0   0
   617   480      0   0   0
   617   616      0   0   1
   617   598      0   0   0
   617   648      0   0   0
   617   610      0   0   0
   617   624      0   0   0
   618   481      0   0   0
   618   108      0   0  -1
   618   599      0   0   0
   618   649      0   0   0
   618   611      0   0   0
   618   625      0   0   0
   619   482      0   0   0
   619   622      0   0  -1
   619   597      0   0   0
   619   650      0   0   0
   619   612      0   0   0
   619   626      0   0   0
   620   483      0   0   0
   620   621      0   0   1
   620   103      0   0   0
   620   651      0   0   0
   620   613      0   0   0
   620   627      0   0   0
   621   484      0   0   0
   621   620      0   0  -1
   621   599      0   0   0
   621   652      0   0   0
   621   614      0   0   0
   621   628      0   0   0
   622   485      0   0   0
   622   619      0   0   1
   622   598      0   0   0
   622   653      0   0   0
   622   615      0   0   0
   622   629      0   0   0
   623   486      0   0   0
   623   624      0   0  -1
   623   600      0   0   0
   623   654      0   0   0
   623   616      0   0   0
   623   630      0   0   0
   624   487      0   0   0
   624   623      0   0   1
   624   601      0   0   0
   624   655      0   0   0
   624   617      0   0   0
   624   631      0   0   0
   625   488      0   0   0
   625   109      0   0  -1
   625   602      0   0   0
   625   656      0   0   0
   625   618      0   0   0
   625   632      0   0   0
   626   489      0   0   0
   626   629      0   0  -1
   626   600      0   0   0
   626   657      0   0   0
   626   619      0   0   0
   626   633      0   0   0
   627   490      0   0   0
   627   628      0   0   1
   627   104      0   0   0
   627   658      0   0   0
   627   620      0   0   0
   627   634      0   0   0
   628   491      0   0   0
   628   627      0   0  -1
   628   602      0   0   0
   628   659      0   0   0
   628   621      0   0   0
   628   635      0   0   0
   629   492      0   0   0
   629   626      0   0   1
   629   601      0   0   0
   629   660      0   0   0
   629   622      0   0   0
   629   636      0   0   0
   630   493      0   0   0
   630   631      0   0  -1
   630   603      0   0   0
   630   661      0   0   0
   630   623      0   0   0
   630   635     -1   0   0
   631   494      0   0   0
   631   630      0   0   1
   631   604      0   0   0
   631   662      0   0   0
   631   624      0   0   0
   631   634     -1   0   0
   632   495      0   0   0
   632   110      0   0  -1
   632   605      0   0   0
   632   663      0   0   0
   632   625      0   0   0
   632   633      1   0   0
   633   496      0   0   0
   633   636      0   0  -1
   633   603      0   0   0
   633   664      0   0   0
   633   626      0   0   0
   633   632     -1   0   0
   634   497      0   0   0
   634   635      0   0   1
   634   105      0   0   0
   634   665      0   0   0
   634   627      0   0   0
   634   631      1   0   0
   635   498      0   0   0
   635   634      0   0  -1
   635   605      0   0   0
   635   666      0   0   0
   635   628      0   0   0
   635   630      1   0   0
   636   499      0   0   0
   636   633      0   0   1
   636   604      0   0   0
   636   667      0   0   0
   636   629      0   0   0
   636   110     -1   0   0
   637   500      0   0   0
   637   638      0   0  -1
   637   606      0   0   0
   637   668      0   0   0
   637   640      0   0   0
   637   645      0   0   0
   638   501      0   0   0
   638   637      0   0   1
   638   607      0   0   0
   638   669      0   0   0
   638   641      0   0   0
   638   644      0   0   0
   639   502      0   0   0
   639   111      0   0  -1
   639   608      0   0   0
   639   670      0   0   0
   639   642      0   0   0
   639   643      0   0   0
   640   503      0   0   0
   640   641      0   0  -1
   640   609      0   0   0
   640   671      0   0   0
   640   637      0   0   0
   640   647      0   0   0
   641   504      0   0   0
   641   640      0   0   1
   641   610      0   0   0
   641   672      0   0   0
   641   638      0   0   0
   641   648      0   0   0
   642   505      0   0   0
   642   112      0   0  -1
   642   611      0   0   0
   642   673      0   0   0
   642   639      0   0   0
   642   649      0   0   0
   643   506      0   0   0
   643   646      0   0  -1
   643   612      0   0   0
   643   674      0   0   0
   643   639      0   0   0
   643   650      0   0   0
   644   507      0   0   0
   644   645      0   0   1
   644   613      0   0   0
   644   675      0   0   0
   644   638      0   0   0
   644   651      0   0   0
   645   508      0   0   0
   645   644      0   0  -1
   645   614      0   0   0
   645   676      0   0   0
   645   637      0   0   0
   645   652      0   0   0
   646   509      0   0   0
   646   643      0   0   1
   646   615      0   0   0
   646   677      0   0   0
   646   111      0   0   0
   646   653      0   0   0
   647   510      0   0   0
   647   648      0   0  -1
   647   616      0   0   0
   647   678      0   0   0
   647   640      0   0   0
   647   654      0   0   0
   648   511      0   0   0
   648   647      0   0   1
   648   617      0   0   0
   648   679      0   0   0
   648   641      0   0   0
   648   655      0   0   0
   649   512      0   0   0
   649   113      0   0  -1
   649   618      0   0   0
   649   680      0   0   0
   649   642      0   0   0
   649   656      0   0   0
   650   513      0   0   0
   650   653      0   0  -1
   650   619      0   0   0
   650   681      0   0   0
   650   643      0   0   0
   650   657      0   0   0
   651   514      0   0   0
   651   652      0   0   1
   651   620      0   0   0
   651   682      0   0   0
   651   644      0   0   0
   651   658      0   0   0
   652   515      0   0   0
   652   651      0   0  -1
   652   621      0   0   0
   652   683      0   0   0
   652   645      0   0   0
   652   659      0   0   0
   653   516      0   0   0
   653   650      0   0   1
   653   622      0   0   0
   653   684      0   0   0
   653   646      0   0   0
   653   660      0   0   0
   654   517      0   0   0
   654   655      0   0  -1
   654   623      0   0   0
   654   685      0   0   0
   654   647      0   0   0
   654   661      0   0   0
   655   518      0   0   0
   655   654      0   0   1
   655   624      0   0   0
   655   686      0   0   0
   655   648      0   0   0
   655   662      0   0   0
   656   519      0   0   0
   656   114      0   0  -1
   656   625      0   0   0
   656   687      0   0   0
   656   649      0   0   0
   656   663      0   0   0
   657   520      0   0   0
   657   660      0   0  -1
   657   626      0   0   0
   657   688      0   0   0
   657   650      0   0   0
   657   664      0   0   0
   658   521      0   0   0
   658   659      0   0   1
   658   627      0   0   0
   658   689      0   0   0
   658   651      0   0   0
   658   665      0   0   0
   659   522      0   0   0
   659   658      0   0  -1
   659   628      0   0   0
   659   690      0   0   0
   659   652      0   0   0
   659   666      0   0   0
   660   523      0   0   0
   660   657      0   0   1
   660   629      0   0   0
   660   691      0   0   0
   660   653      0   0   0
   660   667      0   0   0
   661   524      0   0   0
   661   662      0   0  -1
   661   630      0   0   0
   661   692      0   0   0
   661   654      0   0   0
   661   666     -1   0   0
   662   525      0   0   0
   662   661      0   0   1
   662   631      0   0   0
   662   693      0   0   0
   662   655      0   0   0
   662   665     -1   0   0
   663   526      0   0   0
   663   115      0   0  -1
   663   632      0   0   0
   663   694      0   0   0
   663   656      0   0   0
   663   664      1   0   0
   664   527      0   0   0
   664   667      0   0  -1
   664   633      0   0   0
   664   695      0   0   0
   664   657      0   0   0
   664   663     -1   0   0
   665   528      0   0   0
   665   666      0   0   1
   665   634      0   0   0
   665   696      0   0   0
   665   658      0   0   0
   665   662      1   0   0
   666   529      0   0   0
   666   665      0   0  -1
   666   635      0   0   0
   666   697      0   0   0
   666   659      0   0   0
   666   661      1   0   0
   667   530      0   0   0
   667   664      0   0   1
   667   636      0   0   0
   667   698      0   0   0
   667   660      0   0   0
   667   115     -1   0   0
   668   531      0   0   0
   668   669      0   0  -1
   668   637      0   0   0
   668   699      0   0   0
   668   671      0   0   0
   668   676      0   0   0
   669   532      0   0   0
   669   668      0   0   1
   669   638      0   0   0
   669   700      0   0   0
   669   672      0   0   0
   669   675      0   0   0
   670   533      0   0   0
   670   116      0   0  -1
   670   639      0   0   0
   670   701      0   0   0
   670   673      0   0   0
   670   674      0   0   0
   671   534      0   0   0
   671   672      0   0  -1
   671   640      0   0   0
   671   702      0   0   0
   671   668      0   0   0
   671   678      0   0   0
   672   535      0   0   0
   672   671      0   0   1
   672   641      0   0   0
   672   703      0   0   0
   672   669      0   0   0
   672   679      0   0   0
   673   536      0   0   0
   673   117      0   0  -1
   673   642      0   0   0
   673   704      0   0   0
   673   670      0   0   0
   673   680      0   0   0
   674   537      0   0   0
   674   677      0   0  -1
   674   643      0   0   0
   674   705      0   0   0
   674   670      0   0   0
   674   681      0   0   0
   675   538      0   0   0
   675   676      0   0   1
   675   644      0   0   0
   675   706      0   0   0
   675   669      0   0   0
   675   682      0   0   0
   676   539      0   0   0
   676   675      0   0  -1
   676   645      0   0   0
   676   707      0   0   0
   676   668      0   0   0
   676   683      0   0   0
   677   540      0   0   0
   677   674      0   0   1
   677   646      0   0   0
   677   708      0   0   0
   677   116      0   0   0
   677   684      0   0   0
   678   541      0   0   0
   678   679      0   0  -1
   678   647      0   0   0
   678   709      0   0   0
   678   671      0   0   0
   678   685      0   0   0
   679   542      0   0   0
   679   678      0   0   1
   679   648      0   0   0
   679   710      0   0   0
   679   672      0   0   0
   679   686      0   0   0
   680   543      0   0   0
   680   118      0   0  -1
   680   649      0   0   0
   680   711      0   0   0
   680   673      0   0   0
   680   687      0   0   0
   681   544      0   0   0
   681   684      0   0  -1
   681   650      0   0   0
   681   712      0   0   0
   681   674      0   0   0
   681   688      0   0   0
   682   545      0   0   0
   682   683      0   0   1
   682   651      0   0   0
   682   713      0   0   0
   682   675      0   0   0
   682   689      0   0   0
   683   546      0   0   0
   683   682      0   0  -1
   683   652      0   0   0
   683   714      0   0   0
   683   676      0   0   0
   683   690      0   0   0
   684   547      0   0   0
   684   681      0   0   1
   684   653      0   0   0
   684   715      0   0   0
   684   677      0   0   0
   684   691      0   0   0
   685   548      0   0   0
   685   686      0   0  -1
   685   654      0   0   0
   685   716      0   0   0
   685   678      0   0   0
   685   692      0   0   0
   686   549      0   0   0
   686   685      0   0   1
   686   655      0   0   0
   686   717      0   0   0
   686   679      0   0   0
   686   693      0   0   0
   687   550      0   0   0
   687   119      0   0  -1
   687   656      0   0   0
   687   718      0   0   0
   687   680      0   0   0
   687   694      0   0   0
   688   551      0   0   0
   688   691      0   0  -1
   688   657      0   0   0
   688   719      0   0   0
   688   681      0   0   0
   688   695      0   0   0
   689   552      0   0   0
   689   690      0   0   1
   689   658      0   0   0
   689   720      0   0   0
   689   682      0   0   0
   689   696      0   0   0
   690   553      0   0   0
   690   689      0   0  -1
   690   659      0   0   0
   690   721      0   0   0
   690   683      0   0   0
   690   697      0   0   0
   691   554      0   0   0
   691   688      0   0   1
   691   660      0   0   0
   691   722      0   0   0
   691   684      0   0   0
   691   698      0   0   0
   692   555      0   0   0
   692   693      0   0  -1
   692   661      0   0   0
   692   723      0   0   0
   692   685      0   0   0
   692   697     -1   0   0
   693   556      0   0   0
   693   692      0   0   1
   693   662      0   0   0
   693   724      0   0   0
   693   686      0   0   0
   693   696     -1   0   0
   694   557      0   0   0
   694   120      0   0  -1
   694   663      0   0   0
   694   725      0   0   0
   694   687      0   0   0
   694   695      1   0   0
   695   558      0   0   0
   695   698      0   0  -1
   695   664      0   0   0
   695   726      0   0   0
   695   688      0   0   0
   695   694     -1   0   0
   696   559      0   0   0
   696   697      0   0   1
   696   665      0   0   0
   696   727      0   0   0
   696   689      0   0   0
   696   693      1   0   0
   697   560      0   0   0
   697   696      0   0  -1
   697   666      0   0   0
   697   728      0   0   0
   697   690      0   0   0
   697   692      1   0   0
   698   561      0   0   0
   698   695      0   0   1
   698   667      0   0   0
   698   729      0   0   0
   698   691      0   0   0
   698   120     -1   0   0
   699   562      0   0   0
   699   700      0   0  -1
   699   668      0   0   0
   699   701      0  -1   0
   699   702      0   0   0
   699   707      0   0   0
   700   563      0   0   0
   700   699      0   0   1
   700   669      0   0   0
   700   121      0  -1   0
   700   703      0   0   0
   700   706      0   0   0
   701   564      0   0   0
   701   121      0   0  -1
   701   670      0   0   0
   701   699      0   1   0
   701   704      0   0   0
   701   705      0   0   0
   702   565      0   0   0
   702   703      0   0  -1
   702   671      0   0   0
   702   705      0  -1   0
   702   699      0   0   0
   702   709      0   0   0
   703   566      0   0   0
   703   702      0   0   1
   703   672      0   0   0
   703   708      0  -1   0
   703   700      0   0   0
   703   710      0   0   0
   704   567      0   0   0
   704   122      0   0  -1
   704   673      0   0   0
   704   707      0   1   0
   704   701      0   0   0
   704   711      0   0   0
   705   568      0   0   0
   705   708      0   0  -1
   705   674      0   0   0
   705   702      0   1   0
   705   701      0   0   0
   705   712      0   0   0
   706   569      0   0   0
   706   707      0   0   1
   706   675      0   0   0
   706   122      0  -1   0
   706   700      0   0   0
   706   713      0   0   0
   707   570      0   0   0
   707   706      0   0  -1
   707   676      0   0   0
   707   704      0  -1   0
   707   699      0   0   0
   707   714      0   0   0
   708   571      0   0   0
   708   705      0   0   1
   708   677      0   0   0
   708   703      0   1   0
   708   121      0   0   0
   708   715      0   0   0
   709   572      0   0   0
   709   710      0   0  -1
   709   678      0   0   0
   709   712      0  -1   0
   709   702      0   0   0
   709   716      0   0   0
   710   573      0   0   0
   710   709      0   0   1
   710   679      0   0   0
   710   715      0  -1   0
   710   703      0   0   0
   710   717      0   0   0
   711   574      0   0   0
   711   123      0   0  -1
   711   680      0   0   0
   711   714      0   1   0
   711   704      0   0   0
   711   718      0   0   0
   712   575      0   0   0
   712   715      0   0  -1
   712   681      0   0   0
   712   709      0   1   0
   712   705      0   0   0
   712   719      0   0   0
   713   576      0   0   0
   713   714      0   0   1
   713   682      0   0   0
   713   123      0  -1   0
   713   706      0   0   0
   713   720      0   0   0
   714   577      0   0   0
   714   713      0   0  -1
   714   683      0   0   0
   714   711      0  -1   0
   714   707      0   0   0
   714   721      0   0   0
   715   578      0   0   0
   715   712      0   0   1
   715   684      0   0   0
   715   710      0   1   0
   715   708      0   0   0
   715   722      0   0   0
   716   579      0   0   0
   716   717      0   0  -1
   716   685      0   0   0
   716   719      0  -1   0
   716   709      0   0   0
   716   723      0   0   0
   717   580      0   0   0
   717   716      0   0   1
   717   686      0   0   0
   717   722      0  -1   0
   717   710      0   0   0
   717   724      0   0   0
   718   581      0   0   0
   718   124      0   0  -1
   718   687      0   0   0
   718   721      0   1   0
   718   711      0   0   0
   718   725      0   0   0
   719   582      0   0   0
   719   722      0   0  -1
   719   688      0   0   0
   719   716      0   1   0
   719   712      0   0   0
   719   726      0   0   0
   720   583      0   0   0
   720   721      0   0   1
   720   689      0   0   0
   720   124      0  -1   0
   720   713      0   0   0
   720   727      0   0   0
   721   584      0   0   0
   721   720      0   0  -1
   721   690      0   0   0
   721   718      0  -1   0
   721   714      0   0   0
   721   728      0   0   0
   722   585      0   0   0
   722   719      0   0   1
   722   691      0   0   0
   722   717      0   1   0
   722   715      0   0   0
   722   729      0   0   0
   723   586      0   0   0
   723   724      0   0  -1
   723   692      0   0   0
   723   726      0  -1   0
   723   716      0   0   0
   723   728     -1   0   0
   724   587      0   0   0
   724   723      0   0   1
   724   693      0   0   0
   724   729      0  -1   0
   724   717      0   0   0
   724   727     -1   0   0
   725   588      0   0   0
   725   125      0   0  -1
   725   694      0   0   0
   725   728      0   1   0
   725   718      0   0   0
   725   726      1   0   0
   726   589      0   0   0
   726   729      0   0  -1
   726   695      0   0   0
   726   723      0   1   0
   726   719      0   0   0
   726   725     -1   0   0
   727   590      0   0   0
   727   728      0   0   1
   727   696      0   0   0
   727   125      0  -1   0
   727   720      0   0   0
   727   724      1   0   0
   728   591      0   0   0
   728   727      0   0  -1
   728   697      0   0   0
   728   725      0  -1   0
   728   721      0   0   0
   728   723      1   0   0
   729   592      0   0   0
   729   726      0   0   1
   729   698      0   0   0
   729   724      0   1   0
   729   722      0   0   0
   729   125     -1   0   0
end nnkpts

begin exclude_bands
   7
   1
   2
   3
   4
   5
   6
   7
end exclude_bands
