 vasp.5.4.4.18Apr17-6-g9f103f2a35 (build Jul  9 2021 09:17:53) complex           
 executed on             LinuxIFC date 2022.01.06  15:25:54
 running on   32 total cores
 distrk:  each k-point on   32 cores,    1 groups
 distr:  one band on NCORES_PER_BAND=   1 cores,   32 groups


--------------------------------------------------------------------------------------------------------


 INCAR:
 POTCAR:    PAW_PBE Sr_sv 07Sep2000               
 POTCAR:    PAW_PBE V 08Apr2002                   
 POTCAR:    PAW_PBE O 08Apr2002                   

 ----------------------------------------------------------------------------- 
|                                                                             |
|           W    W    AA    RRRRR   N    N  II  N    N   GGGG   !!!           |
|           W    W   A  A   R    R  NN   N  II  NN   N  G    G  !!!           |
|           W    W  A    A  R    R  N N  N  II  N N  N  G       !!!           |
|           W WW W  AAAAAA  RRRRR   N  N N  II  N  N N  G  GGG   !            |
|           WW  WW  A    A  R   R   N   NN  II  N   NN  G    G                |
|           W    W  A    A  R    R  N    N  II  N    N   GGGG   !!!           |
|                                                                             |
|      For optimal performance we recommend to set                            |
|        NCORE= 4 - approx SQRT( number of cores)                             |
|      NCORE specifies how many cores store one orbital (NPAR=cpu/NCORE).     |
|      This setting can  greatly improve the performance of VASP for DFT.     |
|      The default,   NCORE=1            might be grossly inefficient         |
|      on modern multi-core architectures or massively parallel machines.     |
|      Do your own testing !!!!                                               |
|      Unfortunately you need to use the default for GW and RPA calculations. |
|      (for HF NCORE is supported but not extensively tested yet)             |
|                                                                             |
 ----------------------------------------------------------------------------- 

 POTCAR:    PAW_PBE Sr_sv 07Sep2000               
   VRHFIN =Sr: 4s4p5s                                                           
   LEXCH  = PE                                                                  
   EATOM  =   843.0319 eV,   61.9611 Ry                                         
                                                                                
   TITEL  = PAW_PBE Sr_sv 07Sep2000                                             
   LULTRA =        F    use ultrasoft PP ?                                      
   IUNSCR =        1    unscreen: 0-lin 1-nonlin 2-no                           
   RPACOR =    2.200    partial core radius                                     
   POMASS =   87.620; ZVAL   =   10.000    mass and valenz                      
   RCORE  =    2.500    outmost cutoff radius                                   
   RWIGS  =    4.040; RWIGS  =    2.138    wigner-seitz radius (au A)           
   ENMAX  =  229.353; ENMIN  =  172.014 eV                                      
   RCLOC  =    2.201    cutoff for local pot                                    
   LCOR   =        T    correct aug charges                                     
   LPAW   =        T    paw PP                                                  
   EAUG   =  366.804                                                            
   DEXC   =    0.000                                                            
   RMAX   =    2.547    core radius for proj-oper                               
   RAUG   =    1.300    factor for augmentation sphere                          
   RDEP   =    2.562    radius for radial grids                                 
   RDEPT  =    2.128    core radius for aug-charge                              
                                                                                
   Atomic configuration                                                         
   10 entries                                                                   
     n  l   j            E        occ.                                          
     1  0  0.50    -15934.8930   2.0000                                         
     2  0  0.50     -2157.6250   2.0000                                         
     2  1  1.50     -1917.0034   6.0000                                         
     3  0  0.50      -333.7288   2.0000                                         
     3  1  1.50      -256.0992   6.0000                                         
     3  2  2.50      -127.9971  10.0000                                         
     4  0  0.50       -40.8953   2.0000                                         
     5  0  0.50        -3.5257   1.9990                                         
     4  1  1.50       -22.8179   6.0000                                         
     4  2  1.50        -1.2815   0.0010                                         
   Description                                                                  
     l       E           TYP  RCUT    TYP  RCUT                                 
     0    -40.8953213     23  2.480                                             
     0     -3.5257161     23  2.480                                             
     1    -22.8178632     23  2.500                                             
     1    -24.1784458     23  2.500                                             
     2     -1.2814598     23  2.500                                             
     2      0.2279365     23  2.500                                             
  local pseudopotential read in
  partial core-charges read in
  partial kinetic energy density read in
  atomic valenz-charges read in
  non local Contribution for L=           0  read in
    real space projection operators read in
  non local Contribution for L=           0  read in
    real space projection operators read in
  non local Contribution for L=           1  read in
    real space projection operators read in
  non local Contribution for L=           1  read in
    real space projection operators read in
  non local Contribution for L=           2  read in
    real space projection operators read in
  non local Contribution for L=           2  read in
    real space projection operators read in
    PAW grid and wavefunctions read in

   number of l-projection  operators is LMAX  =           6
   number of lm-projection operators is LMMAX =          18

 POTCAR:    PAW_PBE V 08Apr2002                   
   VRHFIN =V: p6 d4 s1                                                          
   LEXCH  = PE                                                                  
   EATOM  =   170.8679 eV,   12.5584 Ry                                         
                                                                                
   TITEL  = PAW_PBE V 08Apr2002                                                 
   LULTRA =        F    use ultrasoft PP ?                                      
   IUNSCR =        1    unscreen: 0-lin 1-nonlin 2-no                           
   RPACOR =    2.000    partial core radius                                     
   POMASS =   50.941; ZVAL   =    5.000    mass and valenz                      
   RCORE  =    2.700    outmost cutoff radius                                   
   RWIGS  =    2.500; RWIGS  =    1.323    wigner-seitz radius (au A)           
   ENMAX  =  192.543; ENMIN  =  144.408 eV                                      
   RCLOC  =    1.779    cutoff for local pot                                    
   LCOR   =        T    correct aug charges                                     
   LPAW   =        T    paw PP                                                  
   EAUG   =  358.662                                                            
   DEXC   =    0.000                                                            
   RMAX   =    2.768    core radius for proj-oper                               
   RAUG   =    1.300    factor for augmentation sphere                          
   RDEP   =    2.762    radius for radial grids                                 
   RDEPT  =    2.240    core radius for aug-charge                              
                                                                                
   Atomic configuration                                                         
    9 entries                                                                   
     n  l   j            E        occ.                                          
     1  0  0.50     -5360.7193   2.0000                                         
     2  0  0.50      -598.4546   2.0000                                         
     2  1  1.50      -499.0155   6.0000                                         
     3  0  0.50       -66.5711   2.0000                                         
     3  1  1.50       -40.5282   6.0000                                         
     3  2  2.50        -2.4291   4.0000                                         
     4  0  0.50        -3.8743   1.0000                                         
     4  1  0.50        -2.7212   0.0000                                         
     4  3  2.50        -1.3606   0.0000                                         
   Description                                                                  
     l       E           TYP  RCUT    TYP  RCUT                                 
     2     -2.4290901     23  2.700                                             
     2     -3.7896727     23  2.700                                             
     0     -3.8742752     23  2.700                                             
     0     27.2116520     23  2.700                                             
     1     -2.7211652     23  2.700                                             
     1     27.2116520     23  2.700                                             
  local pseudopotential read in
  partial core-charges read in
  partial kinetic energy density read in
  atomic valenz-charges read in
  non local Contribution for L=           2  read in
    real space projection operators read in
  non local Contribution for L=           2  read in
    real space projection operators read in
  non local Contribution for L=           0  read in
    real space projection operators read in
  non local Contribution for L=           0  read in
    real space projection operators read in
  non local Contribution for L=           1  read in
    real space projection operators read in
  non local Contribution for L=           1  read in
    real space projection operators read in
    PAW grid and wavefunctions read in

   number of l-projection  operators is LMAX  =           6
   number of lm-projection operators is LMMAX =          18

 POTCAR:    PAW_PBE O 08Apr2002                   
   VRHFIN =O: s2p4                                                              
   LEXCH  = PE                                                                  
   EATOM  =   432.3788 eV,   31.7789 Ry                                         
                                                                                
   TITEL  = PAW_PBE O 08Apr2002                                                 
   LULTRA =        F    use ultrasoft PP ?                                      
   IUNSCR =        1    unscreen: 0-lin 1-nonlin 2-no                           
   RPACOR =    1.200    partial core radius                                     
   POMASS =   16.000; ZVAL   =    6.000    mass and valenz                      
   RCORE  =    1.520    outmost cutoff radius                                   
   RWIGS  =    1.550; RWIGS  =    0.820    wigner-seitz radius (au A)           
   ENMAX  =  400.000; ENMIN  =  300.000 eV                                      
   ICORE  =        2    local potential                                         
   LCOR   =        T    correct aug charges                                     
   LPAW   =        T    paw PP                                                  
   EAUG   =  605.392                                                            
   DEXC   =    0.000                                                            
   RMAX   =    1.553    core radius for proj-oper                               
   RAUG   =    1.300    factor for augmentation sphere                          
   RDEP   =    1.550    radius for radial grids                                 
   RDEPT  =    1.329    core radius for aug-charge                              
                                                                                
   Atomic configuration                                                         
    4 entries                                                                   
     n  l   j            E        occ.                                          
     1  0  0.50      -514.6923   2.0000                                         
     2  0  0.50       -23.9615   2.0000                                         
     2  1  0.50        -9.0305   4.0000                                         
     3  2  1.50        -9.5241   0.0000                                         
   Description                                                                  
     l       E           TYP  RCUT    TYP  RCUT                                 
     0    -23.9615318     23  1.200                                             
     0     -9.5240782     23  1.200                                             
     1     -9.0304911     23  1.520                                             
     1      8.1634956     23  1.520                                             
     2     -9.5240782      7  1.500                                             
  local pseudopotential read in
  partial core-charges read in
  partial kinetic energy density read in
  kinetic energy density of atom read in
  atomic valenz-charges read in
  non local Contribution for L=           0  read in
    real space projection operators read in
  non local Contribution for L=           0  read in
    real space projection operators read in
  non local Contribution for L=           1  read in
    real space projection operators read in
  non local Contribution for L=           1  read in
    real space projection operators read in
    PAW grid and wavefunctions read in

   number of l-projection  operators is LMAX  =           4
   number of lm-projection operators is LMMAX =           8

  PAW_PBE Sr_sv 07Sep2000               :
 energy of atom  1       EATOM= -843.0319
 kinetic energy error for atom=    0.0032 (will be added to EATOM!!)
  PAW_PBE V 08Apr2002                   :
 energy of atom  2       EATOM= -170.8679
 kinetic energy error for atom=    0.0010 (will be added to EATOM!!)
  PAW_PBE O 08Apr2002                   :
 energy of atom  3       EATOM= -432.3788
 kinetic energy error for atom=    0.1156 (will be added to EATOM!!)


 POSCAR: SrVO3                                   
  positions in direct lattice
  No initial velocities read in
 exchange correlation table for  LEXCH =        8
   RHO(1)=    0.500       N(1)  =     2000
   RHO(2)=  100.500       N(2)  =     4000



--------------------------------------------------------------------------------------------------------


 ion  position               nearest neighbor table
   1  0.000  0.000  0.000-   3 2.69   3 2.69   3 2.69   3 2.69   5 2.73   5 2.73   5 2.73   5 2.73
                             4 2.76   4 2.76   4 2.76   4 2.76   2 3.34   2 3.34   2 3.34   2 3.34
   2  0.500  0.500  0.500-   4 1.89   4 1.89   5 1.92   5 1.92   3 1.98   3 1.98   1 3.34   1 3.34
                             1 3.34   1 3.34   1 3.34   1 3.34   1 3.34   1 3.34
   3  0.500  0.500  0.000-   2 1.98   2 1.98   1 2.69   1 2.69   1 2.69   1 2.69
   4  0.000  0.500  0.500-   2 1.89   2 1.89   1 2.76   1 2.76   1 2.76   1 2.76
   5  0.500  0.000  0.500-   2 1.92   2 1.92   1 2.73   1 2.73   1 2.73   1 2.73

  LATTYP: Found a simple orthorhombic cell.
 ALAT       =     3.7700000000
 B/A-ratio  =     1.0191220159
 C/A-ratio  =     1.0503978780
  
  Lattice vectors:
  
 A1 = (   3.7700000000,   0.0000000000,   0.0000000000)
 A2 = (   0.0000000000,   3.8420900000,   0.0000000000)
 A3 = (   0.0000000000,   0.0000000000,   3.9600000000)


Analysis of symmetry for initial positions (statically):
=====================================================================
 Subroutine PRICEL returns:
 Original cell was already a primitive cell.
 

 Routine SETGRP: Setting up the symmetry group for a 
 simple orthorhombic supercell.


 Subroutine GETGRP returns: Found  8 space group operations
 (whereof  8 operations were pure point group operations)
 out of a pool of  8 trial point group operations.


The static configuration has the point symmetry D_2h.


Analysis of symmetry for dynamics (positions and initial velocities):
=====================================================================
 Subroutine PRICEL returns:
 Original cell was already a primitive cell.
 

 Routine SETGRP: Setting up the symmetry group for a 
 simple orthorhombic supercell.


 Subroutine GETGRP returns: Found  8 space group operations
 (whereof  8 operations were pure point group operations)
 out of a pool of  8 trial point group operations.


The dynamic configuration has the point symmetry D_2h.


 Subroutine INISYM returns: Found  8 space group operations
 (whereof  8 operations are pure point group operations),
 and found     1 'primitive' translations



 KPOINTS: Automatic Mesh                          

Automatic generation of k-mesh.
Space group operators:
 irot       det(A)        alpha          n_x          n_y          n_z        tau_x        tau_y        tau_z
    1     1.000000     0.000000     1.000000     0.000000     0.000000     0.000000     0.000000     0.000000
    2    -1.000000     0.000000     1.000000     0.000000     0.000000     0.000000     0.000000     0.000000
    3     1.000000   180.000000     0.000000     0.000000     1.000000     0.000000     0.000000     0.000000
    4    -1.000000   180.000000     0.000000     0.000000     1.000000     0.000000     0.000000     0.000000
    5     1.000000   179.999999     0.000000     1.000000     0.000000     0.000000     0.000000     0.000000
    6    -1.000000   179.999999     0.000000     1.000000     0.000000     0.000000     0.000000     0.000000
    7     1.000000   180.000000     1.000000     0.000000     0.000000     0.000000     0.000000     0.000000
    8    -1.000000   180.000000     1.000000     0.000000     0.000000     0.000000     0.000000     0.000000
 
 Subroutine IBZKPT returns following result:
 ===========================================
 
 Found    125 irreducible k-points:
 
 Following reciprocal coordinates:
            Coordinates               Weight
  0.000000  0.000000  0.000000      1.000000
  0.111111  0.000000  0.000000      2.000000
  0.222222  0.000000  0.000000      2.000000
  0.333333  0.000000  0.000000      2.000000
  0.444444  0.000000  0.000000      2.000000
  0.000000  0.111111  0.000000      2.000000
  0.111111  0.111111  0.000000      4.000000
  0.222222  0.111111  0.000000      4.000000
  0.333333  0.111111  0.000000      4.000000
  0.444444  0.111111  0.000000      4.000000
  0.000000  0.222222  0.000000      2.000000
  0.111111  0.222222  0.000000      4.000000
  0.222222  0.222222  0.000000      4.000000
  0.333333  0.222222  0.000000      4.000000
  0.444444  0.222222  0.000000      4.000000
  0.000000  0.333333  0.000000      2.000000
  0.111111  0.333333  0.000000      4.000000
  0.222222  0.333333  0.000000      4.000000
  0.333333  0.333333  0.000000      4.000000
  0.444444  0.333333  0.000000      4.000000
  0.000000  0.444444  0.000000      2.000000
  0.111111  0.444444  0.000000      4.000000
  0.222222  0.444444  0.000000      4.000000
  0.333333  0.444444  0.000000      4.000000
  0.444444  0.444444  0.000000      4.000000
  0.000000  0.000000  0.111111      2.000000
  0.111111  0.000000  0.111111      4.000000
  0.222222  0.000000  0.111111      4.000000
  0.333333  0.000000  0.111111      4.000000
  0.444444  0.000000  0.111111      4.000000
  0.000000  0.111111  0.111111      4.000000
  0.111111  0.111111  0.111111      8.000000
  0.222222  0.111111  0.111111      8.000000
  0.333333  0.111111  0.111111      8.000000
  0.444444  0.111111  0.111111      8.000000
  0.000000  0.222222  0.111111      4.000000
  0.111111  0.222222  0.111111      8.000000
  0.222222  0.222222  0.111111      8.000000
  0.333333  0.222222  0.111111      8.000000
  0.444444  0.222222  0.111111      8.000000
  0.000000  0.333333  0.111111      4.000000
  0.111111  0.333333  0.111111      8.000000
  0.222222  0.333333  0.111111      8.000000
  0.333333  0.333333  0.111111      8.000000
  0.444444  0.333333  0.111111      8.000000
  0.000000  0.444444  0.111111      4.000000
  0.111111  0.444444  0.111111      8.000000
  0.222222  0.444444  0.111111      8.000000
  0.333333  0.444444  0.111111      8.000000
  0.444444  0.444444  0.111111      8.000000
  0.000000  0.000000  0.222222      2.000000
  0.111111  0.000000  0.222222      4.000000
  0.222222  0.000000  0.222222      4.000000
  0.333333  0.000000  0.222222      4.000000
  0.444444  0.000000  0.222222      4.000000
  0.000000  0.111111  0.222222      4.000000
  0.111111  0.111111  0.222222      8.000000
  0.222222  0.111111  0.222222      8.000000
  0.333333  0.111111  0.222222      8.000000
  0.444444  0.111111  0.222222      8.000000
  0.000000  0.222222  0.222222      4.000000
  0.111111  0.222222  0.222222      8.000000
  0.222222  0.222222  0.222222      8.000000
  0.333333  0.222222  0.222222      8.000000
  0.444444  0.222222  0.222222      8.000000
  0.000000  0.333333  0.222222      4.000000
  0.111111  0.333333  0.222222      8.000000
  0.222222  0.333333  0.222222      8.000000
  0.333333  0.333333  0.222222      8.000000
  0.444444  0.333333  0.222222      8.000000
  0.000000  0.444444  0.222222      4.000000
  0.111111  0.444444  0.222222      8.000000
  0.222222  0.444444  0.222222      8.000000
  0.333333  0.444444  0.222222      8.000000
  0.444444  0.444444  0.222222      8.000000
  0.000000  0.000000  0.333333      2.000000
  0.111111  0.000000  0.333333      4.000000
  0.222222  0.000000  0.333333      4.000000
  0.333333  0.000000  0.333333      4.000000
  0.444444  0.000000  0.333333      4.000000
  0.000000  0.111111  0.333333      4.000000
  0.111111  0.111111  0.333333      8.000000
  0.222222  0.111111  0.333333      8.000000
  0.333333  0.111111  0.333333      8.000000
  0.444444  0.111111  0.333333      8.000000
  0.000000  0.222222  0.333333      4.000000
  0.111111  0.222222  0.333333      8.000000
  0.222222  0.222222  0.333333      8.000000
  0.333333  0.222222  0.333333      8.000000
  0.444444  0.222222  0.333333      8.000000
  0.000000  0.333333  0.333333      4.000000
  0.111111  0.333333  0.333333      8.000000
  0.222222  0.333333  0.333333      8.000000
  0.333333  0.333333  0.333333      8.000000
  0.444444  0.333333  0.333333      8.000000
  0.000000  0.444444  0.333333      4.000000
  0.111111  0.444444  0.333333      8.000000
  0.222222  0.444444  0.333333      8.000000
  0.333333  0.444444  0.333333      8.000000
  0.444444  0.444444  0.333333      8.000000
  0.000000  0.000000  0.444444      2.000000
  0.111111  0.000000  0.444444      4.000000
  0.222222  0.000000  0.444444      4.000000
  0.333333  0.000000  0.444444      4.000000
  0.444444  0.000000  0.444444      4.000000
  0.000000  0.111111  0.444444      4.000000
  0.111111  0.111111  0.444444      8.000000
  0.222222  0.111111  0.444444      8.000000
  0.333333  0.111111  0.444444      8.000000
  0.444444  0.111111  0.444444      8.000000
  0.000000  0.222222  0.444444      4.000000
  0.111111  0.222222  0.444444      8.000000
  0.222222  0.222222  0.444444      8.000000
  0.333333  0.222222  0.444444      8.000000
  0.444444  0.222222  0.444444      8.000000
  0.000000  0.333333  0.444444      4.000000
  0.111111  0.333333  0.444444      8.000000
  0.222222  0.333333  0.444444      8.000000
  0.333333  0.333333  0.444444      8.000000
  0.444444  0.333333  0.444444      8.000000
  0.000000  0.444444  0.444444      4.000000
  0.111111  0.444444  0.444444      8.000000
  0.222222  0.444444  0.444444      8.000000
  0.333333  0.444444  0.444444      8.000000
  0.444444  0.444444  0.444444      8.000000
 
 Following cartesian coordinates:
            Coordinates               Weight
  0.000000  0.000000  0.000000      1.000000
  0.029472  0.000000  0.000000      2.000000
  0.058945  0.000000  0.000000      2.000000
  0.088417  0.000000  0.000000      2.000000
  0.117890  0.000000  0.000000      2.000000
  0.000000  0.028919  0.000000      2.000000
  0.029472  0.028919  0.000000      4.000000
  0.058945  0.028919  0.000000      4.000000
  0.088417  0.028919  0.000000      4.000000
  0.117890  0.028919  0.000000      4.000000
  0.000000  0.057839  0.000000      2.000000
  0.029472  0.057839  0.000000      4.000000
  0.058945  0.057839  0.000000      4.000000
  0.088417  0.057839  0.000000      4.000000
  0.117890  0.057839  0.000000      4.000000
  0.000000  0.086758  0.000000      2.000000
  0.029472  0.086758  0.000000      4.000000
  0.058945  0.086758  0.000000      4.000000
  0.088417  0.086758  0.000000      4.000000
  0.117890  0.086758  0.000000      4.000000
  0.000000  0.115678  0.000000      2.000000
  0.029472  0.115678  0.000000      4.000000
  0.058945  0.115678  0.000000      4.000000
  0.088417  0.115678  0.000000      4.000000
  0.117890  0.115678  0.000000      4.000000
  0.000000  0.000000  0.028058      2.000000
  0.029472  0.000000  0.028058      4.000000
  0.058945  0.000000  0.028058      4.000000
  0.088417  0.000000  0.028058      4.000000
  0.117890  0.000000  0.028058      4.000000
  0.000000  0.028919  0.028058      4.000000
  0.029472  0.028919  0.028058      8.000000
  0.058945  0.028919  0.028058      8.000000
  0.088417  0.028919  0.028058      8.000000
  0.117890  0.028919  0.028058      8.000000
  0.000000  0.057839  0.028058      4.000000
  0.029472  0.057839  0.028058      8.000000
  0.058945  0.057839  0.028058      8.000000
  0.088417  0.057839  0.028058      8.000000
  0.117890  0.057839  0.028058      8.000000
  0.000000  0.086758  0.028058      4.000000
  0.029472  0.086758  0.028058      8.000000
  0.058945  0.086758  0.028058      8.000000
  0.088417  0.086758  0.028058      8.000000
  0.117890  0.086758  0.028058      8.000000
  0.000000  0.115678  0.028058      4.000000
  0.029472  0.115678  0.028058      8.000000
  0.058945  0.115678  0.028058      8.000000
  0.088417  0.115678  0.028058      8.000000
  0.117890  0.115678  0.028058      8.000000
  0.000000  0.000000  0.056117      2.000000
  0.029472  0.000000  0.056117      4.000000
  0.058945  0.000000  0.056117      4.000000
  0.088417  0.000000  0.056117      4.000000
  0.117890  0.000000  0.056117      4.000000
  0.000000  0.028919  0.056117      4.000000
  0.029472  0.028919  0.056117      8.000000
  0.058945  0.028919  0.056117      8.000000
  0.088417  0.028919  0.056117      8.000000
  0.117890  0.028919  0.056117      8.000000
  0.000000  0.057839  0.056117      4.000000
  0.029472  0.057839  0.056117      8.000000
  0.058945  0.057839  0.056117      8.000000
  0.088417  0.057839  0.056117      8.000000
  0.117890  0.057839  0.056117      8.000000
  0.000000  0.086758  0.056117      4.000000
  0.029472  0.086758  0.056117      8.000000
  0.058945  0.086758  0.056117      8.000000
  0.088417  0.086758  0.056117      8.000000
  0.117890  0.086758  0.056117      8.000000
  0.000000  0.115678  0.056117      4.000000
  0.029472  0.115678  0.056117      8.000000
  0.058945  0.115678  0.056117      8.000000
  0.088417  0.115678  0.056117      8.000000
  0.117890  0.115678  0.056117      8.000000
  0.000000  0.000000  0.084175      2.000000
  0.029472  0.000000  0.084175      4.000000
  0.058945  0.000000  0.084175      4.000000
  0.088417  0.000000  0.084175      4.000000
  0.117890  0.000000  0.084175      4.000000
  0.000000  0.028919  0.084175      4.000000
  0.029472  0.028919  0.084175      8.000000
  0.058945  0.028919  0.084175      8.000000
  0.088417  0.028919  0.084175      8.000000
  0.117890  0.028919  0.084175      8.000000
  0.000000  0.057839  0.084175      4.000000
  0.029472  0.057839  0.084175      8.000000
  0.058945  0.057839  0.084175      8.000000
  0.088417  0.057839  0.084175      8.000000
  0.117890  0.057839  0.084175      8.000000
  0.000000  0.086758  0.084175      4.000000
  0.029472  0.086758  0.084175      8.000000
  0.058945  0.086758  0.084175      8.000000
  0.088417  0.086758  0.084175      8.000000
  0.117890  0.086758  0.084175      8.000000
  0.000000  0.115678  0.084175      4.000000
  0.029472  0.115678  0.084175      8.000000
  0.058945  0.115678  0.084175      8.000000
  0.088417  0.115678  0.084175      8.000000
  0.117890  0.115678  0.084175      8.000000
  0.000000  0.000000  0.112233      2.000000
  0.029472  0.000000  0.112233      4.000000
  0.058945  0.000000  0.112233      4.000000
  0.088417  0.000000  0.112233      4.000000
  0.117890  0.000000  0.112233      4.000000
  0.000000  0.028919  0.112233      4.000000
  0.029472  0.028919  0.112233      8.000000
  0.058945  0.028919  0.112233      8.000000
  0.088417  0.028919  0.112233      8.000000
  0.117890  0.028919  0.112233      8.000000
  0.000000  0.057839  0.112233      4.000000
  0.029472  0.057839  0.112233      8.000000
  0.058945  0.057839  0.112233      8.000000
  0.088417  0.057839  0.112233      8.000000
  0.117890  0.057839  0.112233      8.000000
  0.000000  0.086758  0.112233      4.000000
  0.029472  0.086758  0.112233      8.000000
  0.058945  0.086758  0.112233      8.000000
  0.088417  0.086758  0.112233      8.000000
  0.117890  0.086758  0.112233      8.000000
  0.000000  0.115678  0.112233      4.000000
  0.029472  0.115678  0.112233      8.000000
  0.058945  0.115678  0.112233      8.000000
  0.088417  0.115678  0.112233      8.000000
  0.117890  0.115678  0.112233      8.000000
 
 TETIRR: Found   2149 inequivalent tetrahedra from     4374
 
 Subroutine IBZKPT_HF returns following result:
 ==============================================
 
 Found    729 k-points in 1st BZ
 the following    729 k-points will be used (e.g. in the exchange kernel)
 Following reciprocal coordinates:   # in IRBZ
  0.000000  0.000000  0.000000    0.00137174   1 t-inv F
  0.111111  0.000000  0.000000    0.00137174   2 t-inv F
  0.222222  0.000000  0.000000    0.00137174   3 t-inv F
  0.333333  0.000000  0.000000    0.00137174   4 t-inv F
  0.444444  0.000000  0.000000    0.00137174   5 t-inv F
  0.000000  0.111111  0.000000    0.00137174   6 t-inv F
  0.111111  0.111111  0.000000    0.00137174   7 t-inv F
  0.222222  0.111111  0.000000    0.00137174   8 t-inv F
  0.333333  0.111111  0.000000    0.00137174   9 t-inv F
  0.444444  0.111111  0.000000    0.00137174  10 t-inv F
  0.000000  0.222222  0.000000    0.00137174  11 t-inv F
  0.111111  0.222222  0.000000    0.00137174  12 t-inv F
  0.222222  0.222222  0.000000    0.00137174  13 t-inv F
  0.333333  0.222222  0.000000    0.00137174  14 t-inv F
  0.444444  0.222222  0.000000    0.00137174  15 t-inv F
  0.000000  0.333333  0.000000    0.00137174  16 t-inv F
  0.111111  0.333333  0.000000    0.00137174  17 t-inv F
  0.222222  0.333333  0.000000    0.00137174  18 t-inv F
  0.333333  0.333333  0.000000    0.00137174  19 t-inv F
  0.444444  0.333333  0.000000    0.00137174  20 t-inv F
  0.000000  0.444444  0.000000    0.00137174  21 t-inv F
  0.111111  0.444444  0.000000    0.00137174  22 t-inv F
  0.222222  0.444444  0.000000    0.00137174  23 t-inv F
  0.333333  0.444444  0.000000    0.00137174  24 t-inv F
  0.444444  0.444444  0.000000    0.00137174  25 t-inv F
  0.000000  0.000000  0.111111    0.00137174  26 t-inv F
  0.111111  0.000000  0.111111    0.00137174  27 t-inv F
  0.222222  0.000000  0.111111    0.00137174  28 t-inv F
  0.333333  0.000000  0.111111    0.00137174  29 t-inv F
  0.444444  0.000000  0.111111    0.00137174  30 t-inv F
  0.000000  0.111111  0.111111    0.00137174  31 t-inv F
  0.111111  0.111111  0.111111    0.00137174  32 t-inv F
  0.222222  0.111111  0.111111    0.00137174  33 t-inv F
  0.333333  0.111111  0.111111    0.00137174  34 t-inv F
  0.444444  0.111111  0.111111    0.00137174  35 t-inv F
  0.000000  0.222222  0.111111    0.00137174  36 t-inv F
  0.111111  0.222222  0.111111    0.00137174  37 t-inv F
  0.222222  0.222222  0.111111    0.00137174  38 t-inv F
  0.333333  0.222222  0.111111    0.00137174  39 t-inv F
  0.444444  0.222222  0.111111    0.00137174  40 t-inv F
  0.000000  0.333333  0.111111    0.00137174  41 t-inv F
  0.111111  0.333333  0.111111    0.00137174  42 t-inv F
  0.222222  0.333333  0.111111    0.00137174  43 t-inv F
  0.333333  0.333333  0.111111    0.00137174  44 t-inv F
  0.444444  0.333333  0.111111    0.00137174  45 t-inv F
  0.000000  0.444444  0.111111    0.00137174  46 t-inv F
  0.111111  0.444444  0.111111    0.00137174  47 t-inv F
  0.222222  0.444444  0.111111    0.00137174  48 t-inv F
  0.333333  0.444444  0.111111    0.00137174  49 t-inv F
  0.444444  0.444444  0.111111    0.00137174  50 t-inv F
  0.000000  0.000000  0.222222    0.00137174  51 t-inv F
  0.111111  0.000000  0.222222    0.00137174  52 t-inv F
  0.222222  0.000000  0.222222    0.00137174  53 t-inv F
  0.333333  0.000000  0.222222    0.00137174  54 t-inv F
  0.444444  0.000000  0.222222    0.00137174  55 t-inv F
  0.000000  0.111111  0.222222    0.00137174  56 t-inv F
  0.111111  0.111111  0.222222    0.00137174  57 t-inv F
  0.222222  0.111111  0.222222    0.00137174  58 t-inv F
  0.333333  0.111111  0.222222    0.00137174  59 t-inv F
  0.444444  0.111111  0.222222    0.00137174  60 t-inv F
  0.000000  0.222222  0.222222    0.00137174  61 t-inv F
  0.111111  0.222222  0.222222    0.00137174  62 t-inv F
  0.222222  0.222222  0.222222    0.00137174  63 t-inv F
  0.333333  0.222222  0.222222    0.00137174  64 t-inv F
  0.444444  0.222222  0.222222    0.00137174  65 t-inv F
  0.000000  0.333333  0.222222    0.00137174  66 t-inv F
  0.111111  0.333333  0.222222    0.00137174  67 t-inv F
  0.222222  0.333333  0.222222    0.00137174  68 t-inv F
  0.333333  0.333333  0.222222    0.00137174  69 t-inv F
  0.444444  0.333333  0.222222    0.00137174  70 t-inv F
  0.000000  0.444444  0.222222    0.00137174  71 t-inv F
  0.111111  0.444444  0.222222    0.00137174  72 t-inv F
  0.222222  0.444444  0.222222    0.00137174  73 t-inv F
  0.333333  0.444444  0.222222    0.00137174  74 t-inv F
  0.444444  0.444444  0.222222    0.00137174  75 t-inv F
  0.000000  0.000000  0.333333    0.00137174  76 t-inv F
  0.111111  0.000000  0.333333    0.00137174  77 t-inv F
  0.222222  0.000000  0.333333    0.00137174  78 t-inv F
  0.333333  0.000000  0.333333    0.00137174  79 t-inv F
  0.444444  0.000000  0.333333    0.00137174  80 t-inv F
  0.000000  0.111111  0.333333    0.00137174  81 t-inv F
  0.111111  0.111111  0.333333    0.00137174  82 t-inv F
  0.222222  0.111111  0.333333    0.00137174  83 t-inv F
  0.333333  0.111111  0.333333    0.00137174  84 t-inv F
  0.444444  0.111111  0.333333    0.00137174  85 t-inv F
  0.000000  0.222222  0.333333    0.00137174  86 t-inv F
  0.111111  0.222222  0.333333    0.00137174  87 t-inv F
  0.222222  0.222222  0.333333    0.00137174  88 t-inv F
  0.333333  0.222222  0.333333    0.00137174  89 t-inv F
  0.444444  0.222222  0.333333    0.00137174  90 t-inv F
  0.000000  0.333333  0.333333    0.00137174  91 t-inv F
  0.111111  0.333333  0.333333    0.00137174  92 t-inv F
  0.222222  0.333333  0.333333    0.00137174  93 t-inv F
  0.333333  0.333333  0.333333    0.00137174  94 t-inv F
  0.444444  0.333333  0.333333    0.00137174  95 t-inv F
  0.000000  0.444444  0.333333    0.00137174  96 t-inv F
  0.111111  0.444444  0.333333    0.00137174  97 t-inv F
  0.222222  0.444444  0.333333    0.00137174  98 t-inv F
  0.333333  0.444444  0.333333    0.00137174  99 t-inv F
  0.444444  0.444444  0.333333    0.00137174 100 t-inv F
  0.000000  0.000000  0.444444    0.00137174 101 t-inv F
  0.111111  0.000000  0.444444    0.00137174 102 t-inv F
  0.222222  0.000000  0.444444    0.00137174 103 t-inv F
  0.333333  0.000000  0.444444    0.00137174 104 t-inv F
  0.444444  0.000000  0.444444    0.00137174 105 t-inv F
  0.000000  0.111111  0.444444    0.00137174 106 t-inv F
  0.111111  0.111111  0.444444    0.00137174 107 t-inv F
  0.222222  0.111111  0.444444    0.00137174 108 t-inv F
  0.333333  0.111111  0.444444    0.00137174 109 t-inv F
  0.444444  0.111111  0.444444    0.00137174 110 t-inv F
  0.000000  0.222222  0.444444    0.00137174 111 t-inv F
  0.111111  0.222222  0.444444    0.00137174 112 t-inv F
  0.222222  0.222222  0.444444    0.00137174 113 t-inv F
  0.333333  0.222222  0.444444    0.00137174 114 t-inv F
  0.444444  0.222222  0.444444    0.00137174 115 t-inv F
  0.000000  0.333333  0.444444    0.00137174 116 t-inv F
  0.111111  0.333333  0.444444    0.00137174 117 t-inv F
  0.222222  0.333333  0.444444    0.00137174 118 t-inv F
  0.333333  0.333333  0.444444    0.00137174 119 t-inv F
  0.444444  0.333333  0.444444    0.00137174 120 t-inv F
  0.000000  0.444444  0.444444    0.00137174 121 t-inv F
  0.111111  0.444444  0.444444    0.00137174 122 t-inv F
  0.222222  0.444444  0.444444    0.00137174 123 t-inv F
  0.333333  0.444444  0.444444    0.00137174 124 t-inv F
  0.444444  0.444444  0.444444    0.00137174 125 t-inv F
 -0.111111 -0.000000 -0.000000    0.00137174   2 t-inv F
 -0.222222 -0.000000 -0.000000    0.00137174   3 t-inv F
 -0.333333 -0.000000 -0.000000    0.00137174   4 t-inv F
 -0.444444 -0.000000 -0.000000    0.00137174   5 t-inv F
 -0.000000 -0.111111 -0.000000    0.00137174   6 t-inv F
 -0.111111 -0.111111 -0.000000    0.00137174   7 t-inv F
 -0.111111  0.111111 -0.000000    0.00137174   7 t-inv F
  0.111111 -0.111111  0.000000    0.00137174   7 t-inv F
 -0.222222 -0.111111 -0.000000    0.00137174   8 t-inv F
 -0.222222  0.111111 -0.000000    0.00137174   8 t-inv F
  0.222222 -0.111111  0.000000    0.00137174   8 t-inv F
 -0.333333 -0.111111 -0.000000    0.00137174   9 t-inv F
 -0.333333  0.111111 -0.000000    0.00137174   9 t-inv F
  0.333333 -0.111111  0.000000    0.00137174   9 t-inv F
 -0.444444 -0.111111 -0.000000    0.00137174  10 t-inv F
 -0.444444  0.111111 -0.000000    0.00137174  10 t-inv F
  0.444444 -0.111111  0.000000    0.00137174  10 t-inv F
 -0.000000 -0.222222 -0.000000    0.00137174  11 t-inv F
 -0.111111 -0.222222 -0.000000    0.00137174  12 t-inv F
 -0.111111  0.222222 -0.000000    0.00137174  12 t-inv F
  0.111111 -0.222222  0.000000    0.00137174  12 t-inv F
 -0.222222 -0.222222 -0.000000    0.00137174  13 t-inv F
 -0.222222  0.222222 -0.000000    0.00137174  13 t-inv F
  0.222222 -0.222222  0.000000    0.00137174  13 t-inv F
 -0.333333 -0.222222 -0.000000    0.00137174  14 t-inv F
 -0.333333  0.222222 -0.000000    0.00137174  14 t-inv F
  0.333333 -0.222222  0.000000    0.00137174  14 t-inv F
 -0.444444 -0.222222 -0.000000    0.00137174  15 t-inv F
 -0.444444  0.222222 -0.000000    0.00137174  15 t-inv F
  0.444444 -0.222222  0.000000    0.00137174  15 t-inv F
 -0.000000 -0.333333 -0.000000    0.00137174  16 t-inv F
 -0.111111 -0.333333 -0.000000    0.00137174  17 t-inv F
 -0.111111  0.333333 -0.000000    0.00137174  17 t-inv F
  0.111111 -0.333333  0.000000    0.00137174  17 t-inv F
 -0.222222 -0.333333 -0.000000    0.00137174  18 t-inv F
 -0.222222  0.333333 -0.000000    0.00137174  18 t-inv F
  0.222222 -0.333333  0.000000    0.00137174  18 t-inv F
 -0.333333 -0.333333 -0.000000    0.00137174  19 t-inv F
 -0.333333  0.333333 -0.000000    0.00137174  19 t-inv F
  0.333333 -0.333333  0.000000    0.00137174  19 t-inv F
 -0.444444 -0.333333 -0.000000    0.00137174  20 t-inv F
 -0.444444  0.333333 -0.000000    0.00137174  20 t-inv F
  0.444444 -0.333333  0.000000    0.00137174  20 t-inv F
 -0.000000 -0.444444 -0.000000    0.00137174  21 t-inv F
 -0.111111 -0.444444 -0.000000    0.00137174  22 t-inv F
 -0.111111  0.444444 -0.000000    0.00137174  22 t-inv F
  0.111111 -0.444444  0.000000    0.00137174  22 t-inv F
 -0.222222 -0.444444 -0.000000    0.00137174  23 t-inv F
 -0.222222  0.444444 -0.000000    0.00137174  23 t-inv F
  0.222222 -0.444444  0.000000    0.00137174  23 t-inv F
 -0.333333 -0.444444 -0.000000    0.00137174  24 t-inv F
 -0.333333  0.444444 -0.000000    0.00137174  24 t-inv F
  0.333333 -0.444444  0.000000    0.00137174  24 t-inv F
 -0.444444 -0.444444 -0.000000    0.00137174  25 t-inv F
 -0.444444  0.444444 -0.000000    0.00137174  25 t-inv F
  0.444444 -0.444444  0.000000    0.00137174  25 t-inv F
 -0.000000 -0.000000 -0.111111    0.00137174  26 t-inv F
 -0.111111 -0.000000 -0.111111    0.00137174  27 t-inv F
 -0.111111 -0.000000  0.111111    0.00137174  27 t-inv F
  0.111111  0.000000 -0.111111    0.00137174  27 t-inv F
 -0.222222 -0.000000 -0.111111    0.00137174  28 t-inv F
 -0.222222 -0.000000  0.111111    0.00137174  28 t-inv F
  0.222222  0.000000 -0.111111    0.00137174  28 t-inv F
 -0.333333 -0.000000 -0.111111    0.00137174  29 t-inv F
 -0.333333 -0.000000  0.111111    0.00137174  29 t-inv F
  0.333333  0.000000 -0.111111    0.00137174  29 t-inv F
 -0.444444 -0.000000 -0.111111    0.00137174  30 t-inv F
 -0.444444 -0.000000  0.111111    0.00137174  30 t-inv F
  0.444444  0.000000 -0.111111    0.00137174  30 t-inv F
 -0.000000 -0.111111 -0.111111    0.00137174  31 t-inv F
 -0.000000 -0.111111  0.111111    0.00137174  31 t-inv F
  0.000000  0.111111 -0.111111    0.00137174  31 t-inv F
 -0.111111 -0.111111 -0.111111    0.00137174  32 t-inv F
 -0.111111 -0.111111  0.111111    0.00137174  32 t-inv F
  0.111111  0.111111 -0.111111    0.00137174  32 t-inv F
 -0.111111  0.111111 -0.111111    0.00137174  32 t-inv F
  0.111111 -0.111111  0.111111    0.00137174  32 t-inv F
  0.111111 -0.111111 -0.111111    0.00137174  32 t-inv F
 -0.111111  0.111111  0.111111    0.00137174  32 t-inv F
 -0.222222 -0.111111 -0.111111    0.00137174  33 t-inv F
 -0.222222 -0.111111  0.111111    0.00137174  33 t-inv F
  0.222222  0.111111 -0.111111    0.00137174  33 t-inv F
 -0.222222  0.111111 -0.111111    0.00137174  33 t-inv F
  0.222222 -0.111111  0.111111    0.00137174  33 t-inv F
  0.222222 -0.111111 -0.111111    0.00137174  33 t-inv F
 -0.222222  0.111111  0.111111    0.00137174  33 t-inv F
 -0.333333 -0.111111 -0.111111    0.00137174  34 t-inv F
 -0.333333 -0.111111  0.111111    0.00137174  34 t-inv F
  0.333333  0.111111 -0.111111    0.00137174  34 t-inv F
 -0.333333  0.111111 -0.111111    0.00137174  34 t-inv F
  0.333333 -0.111111  0.111111    0.00137174  34 t-inv F
  0.333333 -0.111111 -0.111111    0.00137174  34 t-inv F
 -0.333333  0.111111  0.111111    0.00137174  34 t-inv F
 -0.444444 -0.111111 -0.111111    0.00137174  35 t-inv F
 -0.444444 -0.111111  0.111111    0.00137174  35 t-inv F
  0.444444  0.111111 -0.111111    0.00137174  35 t-inv F
 -0.444444  0.111111 -0.111111    0.00137174  35 t-inv F
  0.444444 -0.111111  0.111111    0.00137174  35 t-inv F
  0.444444 -0.111111 -0.111111    0.00137174  35 t-inv F
 -0.444444  0.111111  0.111111    0.00137174  35 t-inv F
 -0.000000 -0.222222 -0.111111    0.00137174  36 t-inv F
 -0.000000 -0.222222  0.111111    0.00137174  36 t-inv F
  0.000000  0.222222 -0.111111    0.00137174  36 t-inv F
 -0.111111 -0.222222 -0.111111    0.00137174  37 t-inv F
 -0.111111 -0.222222  0.111111    0.00137174  37 t-inv F
  0.111111  0.222222 -0.111111    0.00137174  37 t-inv F
 -0.111111  0.222222 -0.111111    0.00137174  37 t-inv F
  0.111111 -0.222222  0.111111    0.00137174  37 t-inv F
  0.111111 -0.222222 -0.111111    0.00137174  37 t-inv F
 -0.111111  0.222222  0.111111    0.00137174  37 t-inv F
 -0.222222 -0.222222 -0.111111    0.00137174  38 t-inv F
 -0.222222 -0.222222  0.111111    0.00137174  38 t-inv F
  0.222222  0.222222 -0.111111    0.00137174  38 t-inv F
 -0.222222  0.222222 -0.111111    0.00137174  38 t-inv F
  0.222222 -0.222222  0.111111    0.00137174  38 t-inv F
  0.222222 -0.222222 -0.111111    0.00137174  38 t-inv F
 -0.222222  0.222222  0.111111    0.00137174  38 t-inv F
 -0.333333 -0.222222 -0.111111    0.00137174  39 t-inv F
 -0.333333 -0.222222  0.111111    0.00137174  39 t-inv F
  0.333333  0.222222 -0.111111    0.00137174  39 t-inv F
 -0.333333  0.222222 -0.111111    0.00137174  39 t-inv F
  0.333333 -0.222222  0.111111    0.00137174  39 t-inv F
  0.333333 -0.222222 -0.111111    0.00137174  39 t-inv F
 -0.333333  0.222222  0.111111    0.00137174  39 t-inv F
 -0.444444 -0.222222 -0.111111    0.00137174  40 t-inv F
 -0.444444 -0.222222  0.111111    0.00137174  40 t-inv F
  0.444444  0.222222 -0.111111    0.00137174  40 t-inv F
 -0.444444  0.222222 -0.111111    0.00137174  40 t-inv F
  0.444444 -0.222222  0.111111    0.00137174  40 t-inv F
  0.444444 -0.222222 -0.111111    0.00137174  40 t-inv F
 -0.444444  0.222222  0.111111    0.00137174  40 t-inv F
 -0.000000 -0.333333 -0.111111    0.00137174  41 t-inv F
 -0.000000 -0.333333  0.111111    0.00137174  41 t-inv F
  0.000000  0.333333 -0.111111    0.00137174  41 t-inv F
 -0.111111 -0.333333 -0.111111    0.00137174  42 t-inv F
 -0.111111 -0.333333  0.111111    0.00137174  42 t-inv F
  0.111111  0.333333 -0.111111    0.00137174  42 t-inv F
 -0.111111  0.333333 -0.111111    0.00137174  42 t-inv F
  0.111111 -0.333333  0.111111    0.00137174  42 t-inv F
  0.111111 -0.333333 -0.111111    0.00137174  42 t-inv F
 -0.111111  0.333333  0.111111    0.00137174  42 t-inv F
 -0.222222 -0.333333 -0.111111    0.00137174  43 t-inv F
 -0.222222 -0.333333  0.111111    0.00137174  43 t-inv F
  0.222222  0.333333 -0.111111    0.00137174  43 t-inv F
 -0.222222  0.333333 -0.111111    0.00137174  43 t-inv F
  0.222222 -0.333333  0.111111    0.00137174  43 t-inv F
  0.222222 -0.333333 -0.111111    0.00137174  43 t-inv F
 -0.222222  0.333333  0.111111    0.00137174  43 t-inv F
 -0.333333 -0.333333 -0.111111    0.00137174  44 t-inv F
 -0.333333 -0.333333  0.111111    0.00137174  44 t-inv F
  0.333333  0.333333 -0.111111    0.00137174  44 t-inv F
 -0.333333  0.333333 -0.111111    0.00137174  44 t-inv F
  0.333333 -0.333333  0.111111    0.00137174  44 t-inv F
  0.333333 -0.333333 -0.111111    0.00137174  44 t-inv F
 -0.333333  0.333333  0.111111    0.00137174  44 t-inv F
 -0.444444 -0.333333 -0.111111    0.00137174  45 t-inv F
 -0.444444 -0.333333  0.111111    0.00137174  45 t-inv F
  0.444444  0.333333 -0.111111    0.00137174  45 t-inv F
 -0.444444  0.333333 -0.111111    0.00137174  45 t-inv F
  0.444444 -0.333333  0.111111    0.00137174  45 t-inv F
  0.444444 -0.333333 -0.111111    0.00137174  45 t-inv F
 -0.444444  0.333333  0.111111    0.00137174  45 t-inv F
 -0.000000 -0.444444 -0.111111    0.00137174  46 t-inv F
 -0.000000 -0.444444  0.111111    0.00137174  46 t-inv F
  0.000000  0.444444 -0.111111    0.00137174  46 t-inv F
 -0.111111 -0.444444 -0.111111    0.00137174  47 t-inv F
 -0.111111 -0.444444  0.111111    0.00137174  47 t-inv F
  0.111111  0.444444 -0.111111    0.00137174  47 t-inv F
 -0.111111  0.444444 -0.111111    0.00137174  47 t-inv F
  0.111111 -0.444444  0.111111    0.00137174  47 t-inv F
  0.111111 -0.444444 -0.111111    0.00137174  47 t-inv F
 -0.111111  0.444444  0.111111    0.00137174  47 t-inv F
 -0.222222 -0.444444 -0.111111    0.00137174  48 t-inv F
 -0.222222 -0.444444  0.111111    0.00137174  48 t-inv F
  0.222222  0.444444 -0.111111    0.00137174  48 t-inv F
 -0.222222  0.444444 -0.111111    0.00137174  48 t-inv F
  0.222222 -0.444444  0.111111    0.00137174  48 t-inv F
  0.222222 -0.444444 -0.111111    0.00137174  48 t-inv F
 -0.222222  0.444444  0.111111    0.00137174  48 t-inv F
 -0.333333 -0.444444 -0.111111    0.00137174  49 t-inv F
 -0.333333 -0.444444  0.111111    0.00137174  49 t-inv F
  0.333333  0.444444 -0.111111    0.00137174  49 t-inv F
 -0.333333  0.444444 -0.111111    0.00137174  49 t-inv F
  0.333333 -0.444444  0.111111    0.00137174  49 t-inv F
  0.333333 -0.444444 -0.111111    0.00137174  49 t-inv F
 -0.333333  0.444444  0.111111    0.00137174  49 t-inv F
 -0.444444 -0.444444 -0.111111    0.00137174  50 t-inv F
 -0.444444 -0.444444  0.111111    0.00137174  50 t-inv F
  0.444444  0.444444 -0.111111    0.00137174  50 t-inv F
 -0.444444  0.444444 -0.111111    0.00137174  50 t-inv F
  0.444444 -0.444444  0.111111    0.00137174  50 t-inv F
  0.444444 -0.444444 -0.111111    0.00137174  50 t-inv F
 -0.444444  0.444444  0.111111    0.00137174  50 t-inv F
 -0.000000 -0.000000 -0.222222    0.00137174  51 t-inv F
 -0.111111 -0.000000 -0.222222    0.00137174  52 t-inv F
 -0.111111 -0.000000  0.222222    0.00137174  52 t-inv F
  0.111111  0.000000 -0.222222    0.00137174  52 t-inv F
 -0.222222 -0.000000 -0.222222    0.00137174  53 t-inv F
 -0.222222 -0.000000  0.222222    0.00137174  53 t-inv F
  0.222222  0.000000 -0.222222    0.00137174  53 t-inv F
 -0.333333 -0.000000 -0.222222    0.00137174  54 t-inv F
 -0.333333 -0.000000  0.222222    0.00137174  54 t-inv F
  0.333333  0.000000 -0.222222    0.00137174  54 t-inv F
 -0.444444 -0.000000 -0.222222    0.00137174  55 t-inv F
 -0.444444 -0.000000  0.222222    0.00137174  55 t-inv F
  0.444444  0.000000 -0.222222    0.00137174  55 t-inv F
 -0.000000 -0.111111 -0.222222    0.00137174  56 t-inv F
 -0.000000 -0.111111  0.222222    0.00137174  56 t-inv F
  0.000000  0.111111 -0.222222    0.00137174  56 t-inv F
 -0.111111 -0.111111 -0.222222    0.00137174  57 t-inv F
 -0.111111 -0.111111  0.222222    0.00137174  57 t-inv F
  0.111111  0.111111 -0.222222    0.00137174  57 t-inv F
 -0.111111  0.111111 -0.222222    0.00137174  57 t-inv F
  0.111111 -0.111111  0.222222    0.00137174  57 t-inv F
  0.111111 -0.111111 -0.222222    0.00137174  57 t-inv F
 -0.111111  0.111111  0.222222    0.00137174  57 t-inv F
 -0.222222 -0.111111 -0.222222    0.00137174  58 t-inv F
 -0.222222 -0.111111  0.222222    0.00137174  58 t-inv F
  0.222222  0.111111 -0.222222    0.00137174  58 t-inv F
 -0.222222  0.111111 -0.222222    0.00137174  58 t-inv F
  0.222222 -0.111111  0.222222    0.00137174  58 t-inv F
  0.222222 -0.111111 -0.222222    0.00137174  58 t-inv F
 -0.222222  0.111111  0.222222    0.00137174  58 t-inv F
 -0.333333 -0.111111 -0.222222    0.00137174  59 t-inv F
 -0.333333 -0.111111  0.222222    0.00137174  59 t-inv F
  0.333333  0.111111 -0.222222    0.00137174  59 t-inv F
 -0.333333  0.111111 -0.222222    0.00137174  59 t-inv F
  0.333333 -0.111111  0.222222    0.00137174  59 t-inv F
  0.333333 -0.111111 -0.222222    0.00137174  59 t-inv F
 -0.333333  0.111111  0.222222    0.00137174  59 t-inv F
 -0.444444 -0.111111 -0.222222    0.00137174  60 t-inv F
 -0.444444 -0.111111  0.222222    0.00137174  60 t-inv F
  0.444444  0.111111 -0.222222    0.00137174  60 t-inv F
 -0.444444  0.111111 -0.222222    0.00137174  60 t-inv F
  0.444444 -0.111111  0.222222    0.00137174  60 t-inv F
  0.444444 -0.111111 -0.222222    0.00137174  60 t-inv F
 -0.444444  0.111111  0.222222    0.00137174  60 t-inv F
 -0.000000 -0.222222 -0.222222    0.00137174  61 t-inv F
 -0.000000 -0.222222  0.222222    0.00137174  61 t-inv F
  0.000000  0.222222 -0.222222    0.00137174  61 t-inv F
 -0.111111 -0.222222 -0.222222    0.00137174  62 t-inv F
 -0.111111 -0.222222  0.222222    0.00137174  62 t-inv F
  0.111111  0.222222 -0.222222    0.00137174  62 t-inv F
 -0.111111  0.222222 -0.222222    0.00137174  62 t-inv F
  0.111111 -0.222222  0.222222    0.00137174  62 t-inv F
  0.111111 -0.222222 -0.222222    0.00137174  62 t-inv F
 -0.111111  0.222222  0.222222    0.00137174  62 t-inv F
 -0.222222 -0.222222 -0.222222    0.00137174  63 t-inv F
 -0.222222 -0.222222  0.222222    0.00137174  63 t-inv F
  0.222222  0.222222 -0.222222    0.00137174  63 t-inv F
 -0.222222  0.222222 -0.222222    0.00137174  63 t-inv F
  0.222222 -0.222222  0.222222    0.00137174  63 t-inv F
  0.222222 -0.222222 -0.222222    0.00137174  63 t-inv F
 -0.222222  0.222222  0.222222    0.00137174  63 t-inv F
 -0.333333 -0.222222 -0.222222    0.00137174  64 t-inv F
 -0.333333 -0.222222  0.222222    0.00137174  64 t-inv F
  0.333333  0.222222 -0.222222    0.00137174  64 t-inv F
 -0.333333  0.222222 -0.222222    0.00137174  64 t-inv F
  0.333333 -0.222222  0.222222    0.00137174  64 t-inv F
  0.333333 -0.222222 -0.222222    0.00137174  64 t-inv F
 -0.333333  0.222222  0.222222    0.00137174  64 t-inv F
 -0.444444 -0.222222 -0.222222    0.00137174  65 t-inv F
 -0.444444 -0.222222  0.222222    0.00137174  65 t-inv F
  0.444444  0.222222 -0.222222    0.00137174  65 t-inv F
 -0.444444  0.222222 -0.222222    0.00137174  65 t-inv F
  0.444444 -0.222222  0.222222    0.00137174  65 t-inv F
  0.444444 -0.222222 -0.222222    0.00137174  65 t-inv F
 -0.444444  0.222222  0.222222    0.00137174  65 t-inv F
 -0.000000 -0.333333 -0.222222    0.00137174  66 t-inv F
 -0.000000 -0.333333  0.222222    0.00137174  66 t-inv F
  0.000000  0.333333 -0.222222    0.00137174  66 t-inv F
 -0.111111 -0.333333 -0.222222    0.00137174  67 t-inv F
 -0.111111 -0.333333  0.222222    0.00137174  67 t-inv F
  0.111111  0.333333 -0.222222    0.00137174  67 t-inv F
 -0.111111  0.333333 -0.222222    0.00137174  67 t-inv F
  0.111111 -0.333333  0.222222    0.00137174  67 t-inv F
  0.111111 -0.333333 -0.222222    0.00137174  67 t-inv F
 -0.111111  0.333333  0.222222    0.00137174  67 t-inv F
 -0.222222 -0.333333 -0.222222    0.00137174  68 t-inv F
 -0.222222 -0.333333  0.222222    0.00137174  68 t-inv F
  0.222222  0.333333 -0.222222    0.00137174  68 t-inv F
 -0.222222  0.333333 -0.222222    0.00137174  68 t-inv F
  0.222222 -0.333333  0.222222    0.00137174  68 t-inv F
  0.222222 -0.333333 -0.222222    0.00137174  68 t-inv F
 -0.222222  0.333333  0.222222    0.00137174  68 t-inv F
 -0.333333 -0.333333 -0.222222    0.00137174  69 t-inv F
 -0.333333 -0.333333  0.222222    0.00137174  69 t-inv F
  0.333333  0.333333 -0.222222    0.00137174  69 t-inv F
 -0.333333  0.333333 -0.222222    0.00137174  69 t-inv F
  0.333333 -0.333333  0.222222    0.00137174  69 t-inv F
  0.333333 -0.333333 -0.222222    0.00137174  69 t-inv F
 -0.333333  0.333333  0.222222    0.00137174  69 t-inv F
 -0.444444 -0.333333 -0.222222    0.00137174  70 t-inv F
 -0.444444 -0.333333  0.222222    0.00137174  70 t-inv F
  0.444444  0.333333 -0.222222    0.00137174  70 t-inv F
 -0.444444  0.333333 -0.222222    0.00137174  70 t-inv F
  0.444444 -0.333333  0.222222    0.00137174  70 t-inv F
  0.444444 -0.333333 -0.222222    0.00137174  70 t-inv F
 -0.444444  0.333333  0.222222    0.00137174  70 t-inv F
 -0.000000 -0.444444 -0.222222    0.00137174  71 t-inv F
 -0.000000 -0.444444  0.222222    0.00137174  71 t-inv F
  0.000000  0.444444 -0.222222    0.00137174  71 t-inv F
 -0.111111 -0.444444 -0.222222    0.00137174  72 t-inv F
 -0.111111 -0.444444  0.222222    0.00137174  72 t-inv F
  0.111111  0.444444 -0.222222    0.00137174  72 t-inv F
 -0.111111  0.444444 -0.222222    0.00137174  72 t-inv F
  0.111111 -0.444444  0.222222    0.00137174  72 t-inv F
  0.111111 -0.444444 -0.222222    0.00137174  72 t-inv F
 -0.111111  0.444444  0.222222    0.00137174  72 t-inv F
 -0.222222 -0.444444 -0.222222    0.00137174  73 t-inv F
 -0.222222 -0.444444  0.222222    0.00137174  73 t-inv F
  0.222222  0.444444 -0.222222    0.00137174  73 t-inv F
 -0.222222  0.444444 -0.222222    0.00137174  73 t-inv F
  0.222222 -0.444444  0.222222    0.00137174  73 t-inv F
  0.222222 -0.444444 -0.222222    0.00137174  73 t-inv F
 -0.222222  0.444444  0.222222    0.00137174  73 t-inv F
 -0.333333 -0.444444 -0.222222    0.00137174  74 t-inv F
 -0.333333 -0.444444  0.222222    0.00137174  74 t-inv F
  0.333333  0.444444 -0.222222    0.00137174  74 t-inv F
 -0.333333  0.444444 -0.222222    0.00137174  74 t-inv F
  0.333333 -0.444444  0.222222    0.00137174  74 t-inv F
  0.333333 -0.444444 -0.222222    0.00137174  74 t-inv F
 -0.333333  0.444444  0.222222    0.00137174  74 t-inv F
 -0.444444 -0.444444 -0.222222    0.00137174  75 t-inv F
 -0.444444 -0.444444  0.222222    0.00137174  75 t-inv F
  0.444444  0.444444 -0.222222    0.00137174  75 t-inv F
 -0.444444  0.444444 -0.222222    0.00137174  75 t-inv F
  0.444444 -0.444444  0.222222    0.00137174  75 t-inv F
  0.444444 -0.444444 -0.222222    0.00137174  75 t-inv F
 -0.444444  0.444444  0.222222    0.00137174  75 t-inv F
 -0.000000 -0.000000 -0.333333    0.00137174  76 t-inv F
 -0.111111 -0.000000 -0.333333    0.00137174  77 t-inv F
 -0.111111 -0.000000  0.333333    0.00137174  77 t-inv F
  0.111111  0.000000 -0.333333    0.00137174  77 t-inv F
 -0.222222 -0.000000 -0.333333    0.00137174  78 t-inv F
 -0.222222 -0.000000  0.333333    0.00137174  78 t-inv F
  0.222222  0.000000 -0.333333    0.00137174  78 t-inv F
 -0.333333 -0.000000 -0.333333    0.00137174  79 t-inv F
 -0.333333 -0.000000  0.333333    0.00137174  79 t-inv F
  0.333333  0.000000 -0.333333    0.00137174  79 t-inv F
 -0.444444 -0.000000 -0.333333    0.00137174  80 t-inv F
 -0.444444 -0.000000  0.333333    0.00137174  80 t-inv F
  0.444444  0.000000 -0.333333    0.00137174  80 t-inv F
 -0.000000 -0.111111 -0.333333    0.00137174  81 t-inv F
 -0.000000 -0.111111  0.333333    0.00137174  81 t-inv F
  0.000000  0.111111 -0.333333    0.00137174  81 t-inv F
 -0.111111 -0.111111 -0.333333    0.00137174  82 t-inv F
 -0.111111 -0.111111  0.333333    0.00137174  82 t-inv F
  0.111111  0.111111 -0.333333    0.00137174  82 t-inv F
 -0.111111  0.111111 -0.333333    0.00137174  82 t-inv F
  0.111111 -0.111111  0.333333    0.00137174  82 t-inv F
  0.111111 -0.111111 -0.333333    0.00137174  82 t-inv F
 -0.111111  0.111111  0.333333    0.00137174  82 t-inv F
 -0.222222 -0.111111 -0.333333    0.00137174  83 t-inv F
 -0.222222 -0.111111  0.333333    0.00137174  83 t-inv F
  0.222222  0.111111 -0.333333    0.00137174  83 t-inv F
 -0.222222  0.111111 -0.333333    0.00137174  83 t-inv F
  0.222222 -0.111111  0.333333    0.00137174  83 t-inv F
  0.222222 -0.111111 -0.333333    0.00137174  83 t-inv F
 -0.222222  0.111111  0.333333    0.00137174  83 t-inv F
 -0.333333 -0.111111 -0.333333    0.00137174  84 t-inv F
 -0.333333 -0.111111  0.333333    0.00137174  84 t-inv F
  0.333333  0.111111 -0.333333    0.00137174  84 t-inv F
 -0.333333  0.111111 -0.333333    0.00137174  84 t-inv F
  0.333333 -0.111111  0.333333    0.00137174  84 t-inv F
  0.333333 -0.111111 -0.333333    0.00137174  84 t-inv F
 -0.333333  0.111111  0.333333    0.00137174  84 t-inv F
 -0.444444 -0.111111 -0.333333    0.00137174  85 t-inv F
 -0.444444 -0.111111  0.333333    0.00137174  85 t-inv F
  0.444444  0.111111 -0.333333    0.00137174  85 t-inv F
 -0.444444  0.111111 -0.333333    0.00137174  85 t-inv F
  0.444444 -0.111111  0.333333    0.00137174  85 t-inv F
  0.444444 -0.111111 -0.333333    0.00137174  85 t-inv F
 -0.444444  0.111111  0.333333    0.00137174  85 t-inv F
 -0.000000 -0.222222 -0.333333    0.00137174  86 t-inv F
 -0.000000 -0.222222  0.333333    0.00137174  86 t-inv F
  0.000000  0.222222 -0.333333    0.00137174  86 t-inv F
 -0.111111 -0.222222 -0.333333    0.00137174  87 t-inv F
 -0.111111 -0.222222  0.333333    0.00137174  87 t-inv F
  0.111111  0.222222 -0.333333    0.00137174  87 t-inv F
 -0.111111  0.222222 -0.333333    0.00137174  87 t-inv F
  0.111111 -0.222222  0.333333    0.00137174  87 t-inv F
  0.111111 -0.222222 -0.333333    0.00137174  87 t-inv F
 -0.111111  0.222222  0.333333    0.00137174  87 t-inv F
 -0.222222 -0.222222 -0.333333    0.00137174  88 t-inv F
 -0.222222 -0.222222  0.333333    0.00137174  88 t-inv F
  0.222222  0.222222 -0.333333    0.00137174  88 t-inv F
 -0.222222  0.222222 -0.333333    0.00137174  88 t-inv F
  0.222222 -0.222222  0.333333    0.00137174  88 t-inv F
  0.222222 -0.222222 -0.333333    0.00137174  88 t-inv F
 -0.222222  0.222222  0.333333    0.00137174  88 t-inv F
 -0.333333 -0.222222 -0.333333    0.00137174  89 t-inv F
 -0.333333 -0.222222  0.333333    0.00137174  89 t-inv F
  0.333333  0.222222 -0.333333    0.00137174  89 t-inv F
 -0.333333  0.222222 -0.333333    0.00137174  89 t-inv F
  0.333333 -0.222222  0.333333    0.00137174  89 t-inv F
  0.333333 -0.222222 -0.333333    0.00137174  89 t-inv F
 -0.333333  0.222222  0.333333    0.00137174  89 t-inv F
 -0.444444 -0.222222 -0.333333    0.00137174  90 t-inv F
 -0.444444 -0.222222  0.333333    0.00137174  90 t-inv F
  0.444444  0.222222 -0.333333    0.00137174  90 t-inv F
 -0.444444  0.222222 -0.333333    0.00137174  90 t-inv F
  0.444444 -0.222222  0.333333    0.00137174  90 t-inv F
  0.444444 -0.222222 -0.333333    0.00137174  90 t-inv F
 -0.444444  0.222222  0.333333    0.00137174  90 t-inv F
 -0.000000 -0.333333 -0.333333    0.00137174  91 t-inv F
 -0.000000 -0.333333  0.333333    0.00137174  91 t-inv F
  0.000000  0.333333 -0.333333    0.00137174  91 t-inv F
 -0.111111 -0.333333 -0.333333    0.00137174  92 t-inv F
 -0.111111 -0.333333  0.333333    0.00137174  92 t-inv F
  0.111111  0.333333 -0.333333    0.00137174  92 t-inv F
 -0.111111  0.333333 -0.333333    0.00137174  92 t-inv F
  0.111111 -0.333333  0.333333    0.00137174  92 t-inv F
  0.111111 -0.333333 -0.333333    0.00137174  92 t-inv F
 -0.111111  0.333333  0.333333    0.00137174  92 t-inv F
 -0.222222 -0.333333 -0.333333    0.00137174  93 t-inv F
 -0.222222 -0.333333  0.333333    0.00137174  93 t-inv F
  0.222222  0.333333 -0.333333    0.00137174  93 t-inv F
 -0.222222  0.333333 -0.333333    0.00137174  93 t-inv F
  0.222222 -0.333333  0.333333    0.00137174  93 t-inv F
  0.222222 -0.333333 -0.333333    0.00137174  93 t-inv F
 -0.222222  0.333333  0.333333    0.00137174  93 t-inv F
 -0.333333 -0.333333 -0.333333    0.00137174  94 t-inv F
 -0.333333 -0.333333  0.333333    0.00137174  94 t-inv F
  0.333333  0.333333 -0.333333    0.00137174  94 t-inv F
 -0.333333  0.333333 -0.333333    0.00137174  94 t-inv F
  0.333333 -0.333333  0.333333    0.00137174  94 t-inv F
  0.333333 -0.333333 -0.333333    0.00137174  94 t-inv F
 -0.333333  0.333333  0.333333    0.00137174  94 t-inv F
 -0.444444 -0.333333 -0.333333    0.00137174  95 t-inv F
 -0.444444 -0.333333  0.333333    0.00137174  95 t-inv F
  0.444444  0.333333 -0.333333    0.00137174  95 t-inv F
 -0.444444  0.333333 -0.333333    0.00137174  95 t-inv F
  0.444444 -0.333333  0.333333    0.00137174  95 t-inv F
  0.444444 -0.333333 -0.333333    0.00137174  95 t-inv F
 -0.444444  0.333333  0.333333    0.00137174  95 t-inv F
 -0.000000 -0.444444 -0.333333    0.00137174  96 t-inv F
 -0.000000 -0.444444  0.333333    0.00137174  96 t-inv F
  0.000000  0.444444 -0.333333    0.00137174  96 t-inv F
 -0.111111 -0.444444 -0.333333    0.00137174  97 t-inv F
 -0.111111 -0.444444  0.333333    0.00137174  97 t-inv F
  0.111111  0.444444 -0.333333    0.00137174  97 t-inv F
 -0.111111  0.444444 -0.333333    0.00137174  97 t-inv F
  0.111111 -0.444444  0.333333    0.00137174  97 t-inv F
  0.111111 -0.444444 -0.333333    0.00137174  97 t-inv F
 -0.111111  0.444444  0.333333    0.00137174  97 t-inv F
 -0.222222 -0.444444 -0.333333    0.00137174  98 t-inv F
 -0.222222 -0.444444  0.333333    0.00137174  98 t-inv F
  0.222222  0.444444 -0.333333    0.00137174  98 t-inv F
 -0.222222  0.444444 -0.333333    0.00137174  98 t-inv F
  0.222222 -0.444444  0.333333    0.00137174  98 t-inv F
  0.222222 -0.444444 -0.333333    0.00137174  98 t-inv F
 -0.222222  0.444444  0.333333    0.00137174  98 t-inv F
 -0.333333 -0.444444 -0.333333    0.00137174  99 t-inv F
 -0.333333 -0.444444  0.333333    0.00137174  99 t-inv F
  0.333333  0.444444 -0.333333    0.00137174  99 t-inv F
 -0.333333  0.444444 -0.333333    0.00137174  99 t-inv F
  0.333333 -0.444444  0.333333    0.00137174  99 t-inv F
  0.333333 -0.444444 -0.333333    0.00137174  99 t-inv F
 -0.333333  0.444444  0.333333    0.00137174  99 t-inv F
 -0.444444 -0.444444 -0.333333    0.00137174 100 t-inv F
 -0.444444 -0.444444  0.333333    0.00137174 100 t-inv F
  0.444444  0.444444 -0.333333    0.00137174 100 t-inv F
 -0.444444  0.444444 -0.333333    0.00137174 100 t-inv F
  0.444444 -0.444444  0.333333    0.00137174 100 t-inv F
  0.444444 -0.444444 -0.333333    0.00137174 100 t-inv F
 -0.444444  0.444444  0.333333    0.00137174 100 t-inv F
 -0.000000 -0.000000 -0.444444    0.00137174 101 t-inv F
 -0.111111 -0.000000 -0.444444    0.00137174 102 t-inv F
 -0.111111 -0.000000  0.444444    0.00137174 102 t-inv F
  0.111111  0.000000 -0.444444    0.00137174 102 t-inv F
 -0.222222 -0.000000 -0.444444    0.00137174 103 t-inv F
 -0.222222 -0.000000  0.444444    0.00137174 103 t-inv F
  0.222222  0.000000 -0.444444    0.00137174 103 t-inv F
 -0.333333 -0.000000 -0.444444    0.00137174 104 t-inv F
 -0.333333 -0.000000  0.444444    0.00137174 104 t-inv F
  0.333333  0.000000 -0.444444    0.00137174 104 t-inv F
 -0.444444 -0.000000 -0.444444    0.00137174 105 t-inv F
 -0.444444 -0.000000  0.444444    0.00137174 105 t-inv F
  0.444444  0.000000 -0.444444    0.00137174 105 t-inv F
 -0.000000 -0.111111 -0.444444    0.00137174 106 t-inv F
 -0.000000 -0.111111  0.444444    0.00137174 106 t-inv F
  0.000000  0.111111 -0.444444    0.00137174 106 t-inv F
 -0.111111 -0.111111 -0.444444    0.00137174 107 t-inv F
 -0.111111 -0.111111  0.444444    0.00137174 107 t-inv F
  0.111111  0.111111 -0.444444    0.00137174 107 t-inv F
 -0.111111  0.111111 -0.444444    0.00137174 107 t-inv F
  0.111111 -0.111111  0.444444    0.00137174 107 t-inv F
  0.111111 -0.111111 -0.444444    0.00137174 107 t-inv F
 -0.111111  0.111111  0.444444    0.00137174 107 t-inv F
 -0.222222 -0.111111 -0.444444    0.00137174 108 t-inv F
 -0.222222 -0.111111  0.444444    0.00137174 108 t-inv F
  0.222222  0.111111 -0.444444    0.00137174 108 t-inv F
 -0.222222  0.111111 -0.444444    0.00137174 108 t-inv F
  0.222222 -0.111111  0.444444    0.00137174 108 t-inv F
  0.222222 -0.111111 -0.444444    0.00137174 108 t-inv F
 -0.222222  0.111111  0.444444    0.00137174 108 t-inv F
 -0.333333 -0.111111 -0.444444    0.00137174 109 t-inv F
 -0.333333 -0.111111  0.444444    0.00137174 109 t-inv F
  0.333333  0.111111 -0.444444    0.00137174 109 t-inv F
 -0.333333  0.111111 -0.444444    0.00137174 109 t-inv F
  0.333333 -0.111111  0.444444    0.00137174 109 t-inv F
  0.333333 -0.111111 -0.444444    0.00137174 109 t-inv F
 -0.333333  0.111111  0.444444    0.00137174 109 t-inv F
 -0.444444 -0.111111 -0.444444    0.00137174 110 t-inv F
 -0.444444 -0.111111  0.444444    0.00137174 110 t-inv F
  0.444444  0.111111 -0.444444    0.00137174 110 t-inv F
 -0.444444  0.111111 -0.444444    0.00137174 110 t-inv F
  0.444444 -0.111111  0.444444    0.00137174 110 t-inv F
  0.444444 -0.111111 -0.444444    0.00137174 110 t-inv F
 -0.444444  0.111111  0.444444    0.00137174 110 t-inv F
 -0.000000 -0.222222 -0.444444    0.00137174 111 t-inv F
 -0.000000 -0.222222  0.444444    0.00137174 111 t-inv F
  0.000000  0.222222 -0.444444    0.00137174 111 t-inv F
 -0.111111 -0.222222 -0.444444    0.00137174 112 t-inv F
 -0.111111 -0.222222  0.444444    0.00137174 112 t-inv F
  0.111111  0.222222 -0.444444    0.00137174 112 t-inv F
 -0.111111  0.222222 -0.444444    0.00137174 112 t-inv F
  0.111111 -0.222222  0.444444    0.00137174 112 t-inv F
  0.111111 -0.222222 -0.444444    0.00137174 112 t-inv F
 -0.111111  0.222222  0.444444    0.00137174 112 t-inv F
 -0.222222 -0.222222 -0.444444    0.00137174 113 t-inv F
 -0.222222 -0.222222  0.444444    0.00137174 113 t-inv F
  0.222222  0.222222 -0.444444    0.00137174 113 t-inv F
 -0.222222  0.222222 -0.444444    0.00137174 113 t-inv F
  0.222222 -0.222222  0.444444    0.00137174 113 t-inv F
  0.222222 -0.222222 -0.444444    0.00137174 113 t-inv F
 -0.222222  0.222222  0.444444    0.00137174 113 t-inv F
 -0.333333 -0.222222 -0.444444    0.00137174 114 t-inv F
 -0.333333 -0.222222  0.444444    0.00137174 114 t-inv F
  0.333333  0.222222 -0.444444    0.00137174 114 t-inv F
 -0.333333  0.222222 -0.444444    0.00137174 114 t-inv F
  0.333333 -0.222222  0.444444    0.00137174 114 t-inv F
  0.333333 -0.222222 -0.444444    0.00137174 114 t-inv F
 -0.333333  0.222222  0.444444    0.00137174 114 t-inv F
 -0.444444 -0.222222 -0.444444    0.00137174 115 t-inv F
 -0.444444 -0.222222  0.444444    0.00137174 115 t-inv F
  0.444444  0.222222 -0.444444    0.00137174 115 t-inv F
 -0.444444  0.222222 -0.444444    0.00137174 115 t-inv F
  0.444444 -0.222222  0.444444    0.00137174 115 t-inv F
  0.444444 -0.222222 -0.444444    0.00137174 115 t-inv F
 -0.444444  0.222222  0.444444    0.00137174 115 t-inv F
 -0.000000 -0.333333 -0.444444    0.00137174 116 t-inv F
 -0.000000 -0.333333  0.444444    0.00137174 116 t-inv F
  0.000000  0.333333 -0.444444    0.00137174 116 t-inv F
 -0.111111 -0.333333 -0.444444    0.00137174 117 t-inv F
 -0.111111 -0.333333  0.444444    0.00137174 117 t-inv F
  0.111111  0.333333 -0.444444    0.00137174 117 t-inv F
 -0.111111  0.333333 -0.444444    0.00137174 117 t-inv F
  0.111111 -0.333333  0.444444    0.00137174 117 t-inv F
  0.111111 -0.333333 -0.444444    0.00137174 117 t-inv F
 -0.111111  0.333333  0.444444    0.00137174 117 t-inv F
 -0.222222 -0.333333 -0.444444    0.00137174 118 t-inv F
 -0.222222 -0.333333  0.444444    0.00137174 118 t-inv F
  0.222222  0.333333 -0.444444    0.00137174 118 t-inv F
 -0.222222  0.333333 -0.444444    0.00137174 118 t-inv F
  0.222222 -0.333333  0.444444    0.00137174 118 t-inv F
  0.222222 -0.333333 -0.444444    0.00137174 118 t-inv F
 -0.222222  0.333333  0.444444    0.00137174 118 t-inv F
 -0.333333 -0.333333 -0.444444    0.00137174 119 t-inv F
 -0.333333 -0.333333  0.444444    0.00137174 119 t-inv F
  0.333333  0.333333 -0.444444    0.00137174 119 t-inv F
 -0.333333  0.333333 -0.444444    0.00137174 119 t-inv F
  0.333333 -0.333333  0.444444    0.00137174 119 t-inv F
  0.333333 -0.333333 -0.444444    0.00137174 119 t-inv F
 -0.333333  0.333333  0.444444    0.00137174 119 t-inv F
 -0.444444 -0.333333 -0.444444    0.00137174 120 t-inv F
 -0.444444 -0.333333  0.444444    0.00137174 120 t-inv F
  0.444444  0.333333 -0.444444    0.00137174 120 t-inv F
 -0.444444  0.333333 -0.444444    0.00137174 120 t-inv F
  0.444444 -0.333333  0.444444    0.00137174 120 t-inv F
  0.444444 -0.333333 -0.444444    0.00137174 120 t-inv F
 -0.444444  0.333333  0.444444    0.00137174 120 t-inv F
 -0.000000 -0.444444 -0.444444    0.00137174 121 t-inv F
 -0.000000 -0.444444  0.444444    0.00137174 121 t-inv F
  0.000000  0.444444 -0.444444    0.00137174 121 t-inv F
 -0.111111 -0.444444 -0.444444    0.00137174 122 t-inv F
 -0.111111 -0.444444  0.444444    0.00137174 122 t-inv F
  0.111111  0.444444 -0.444444    0.00137174 122 t-inv F
 -0.111111  0.444444 -0.444444    0.00137174 122 t-inv F
  0.111111 -0.444444  0.444444    0.00137174 122 t-inv F
  0.111111 -0.444444 -0.444444    0.00137174 122 t-inv F
 -0.111111  0.444444  0.444444    0.00137174 122 t-inv F
 -0.222222 -0.444444 -0.444444    0.00137174 123 t-inv F
 -0.222222 -0.444444  0.444444    0.00137174 123 t-inv F
  0.222222  0.444444 -0.444444    0.00137174 123 t-inv F
 -0.222222  0.444444 -0.444444    0.00137174 123 t-inv F
  0.222222 -0.444444  0.444444    0.00137174 123 t-inv F
  0.222222 -0.444444 -0.444444    0.00137174 123 t-inv F
 -0.222222  0.444444  0.444444    0.00137174 123 t-inv F
 -0.333333 -0.444444 -0.444444    0.00137174 124 t-inv F
 -0.333333 -0.444444  0.444444    0.00137174 124 t-inv F
  0.333333  0.444444 -0.444444    0.00137174 124 t-inv F
 -0.333333  0.444444 -0.444444    0.00137174 124 t-inv F
  0.333333 -0.444444  0.444444    0.00137174 124 t-inv F
  0.333333 -0.444444 -0.444444    0.00137174 124 t-inv F
 -0.333333  0.444444  0.444444    0.00137174 124 t-inv F
 -0.444444 -0.444444 -0.444444    0.00137174 125 t-inv F
 -0.444444 -0.444444  0.444444    0.00137174 125 t-inv F
  0.444444  0.444444 -0.444444    0.00137174 125 t-inv F
 -0.444444  0.444444 -0.444444    0.00137174 125 t-inv F
  0.444444 -0.444444  0.444444    0.00137174 125 t-inv F
  0.444444 -0.444444 -0.444444    0.00137174 125 t-inv F
 -0.444444  0.444444  0.444444    0.00137174 125 t-inv F


--------------------------------------------------------------------------------------------------------




 Dimension of arrays:
   k-points           NKPTS =    125   k-points in BZ     NKDIM =    125   number of bands    NBANDS=     32
   number of dos      NEDOS =    301   number of ions     NIONS =      5
   non local maximal  LDIM  =      6   non local SUM 2l+1 LMDIM =     18
   total plane-waves  NPLWV =   7200
   max r-space proj   IRMAX =      1   max aug-charges    IRDMAX=   7811
   dimension x,y,z NGX =    18 NGY =   20 NGZ =   20
   dimension x,y,z NGXF=    36 NGYF=   40 NGZF=   40
   support grid    NGXF=    36 NGYF=   40 NGZF=   40
   ions per type =               1   1   3
   NGX,Y,Z   is equivalent  to a cutoff of   7.94,  8.65,  8.40 a.u.
   NGXF,Y,Z  is equivalent  to a cutoff of  15.87, 17.31, 16.79 a.u.

 SYSTEM =  SrVO3                                   
 POSCAR =  SrVO3                                   

 Startparameter for this run:
   NWRITE =      2    write-flag & timer
   PREC   = normal    normal or accurate (medium, high low for compatibility)
   ISTART =      1    job   : 0-new  1-cont  2-samecut
   ICHARG =      0    charge: 1-file 2-atom 10-const
   ISPIN  =      1    spin polarized calculation?
   LNONCOLLINEAR =      F non collinear calculations
   LSORBIT =      F    spin-orbit coupling
   INIWAV =      1    electr: 0-lowe 1-rand  2-diag
   LASPH  =      F    aspherical Exc in radial PAW
   METAGGA=      F    non-selfconsistent MetaGGA calc.

 Electronic Relaxation 1
   ENCUT  =  400.0 eV  29.40 Ry    5.42 a.u.   6.15  6.27  6.46*2*pi/ulx,y,z
   ENINI  =  400.0     initial cutoff
   ENAUG  =  605.4 eV  augmentation charge cutoff
   NELM   =     60;   NELMIN=  2; NELMDL=  0     # of ELM steps 
   EDIFF  = 0.1E-07   stopping-criterion for ELM
   LREAL  =      F    real-space projection
   NLSPLINE    = F    spline interpolate recip. space projectors
   LCOMPAT=      F    compatible to vasp.4.4
   GGA_COMPAT  = T    GGA compatible to vasp.4.4-vasp.4.6
   LMAXPAW     = -100 max onsite density
   LMAXMIX     =    4 max onsite mixed and CHGCAR
   VOSKOWN=      0    Vosko Wilk Nusair interpolation
   ROPT   =    0.00000   0.00000   0.00000
 Ionic relaxation
   EDIFFG = 0.1E-06   stopping-criterion for IOM
   NSW    =      0    number of steps for IOM
   NBLOCK =      1;   KBLOCK =      1    inner block; outer block 
   IBRION =     -1    ionic relax: 0-MD 1-quasi-New 2-CG
   NFREE  =      0    steps in history (QN), initial steepest desc. (CG)
   ISIF   =      2    stress and relaxation
   IWAVPR =     10    prediction:  0-non 1-charg 2-wave 3-comb
   ISYM   =      2    0-nonsym 1-usesym 2-fastsym
   LCORR  =      T    Harris-Foulkes like correction to forces

   POTIM  = 0.5000    time-step for ionic-motion
   TEIN   =    0.0    initial temperature
   TEBEG  =    0.0;   TEEND  =   0.0 temperature during run
   SMASS  =  -3.00    Nose mass-parameter (am)
   estimated Nose-frequenzy (Omega)   =  0.10E-29 period in steps =****** mass=  -0.325E-27a.u.
   SCALEE = 1.0000    scale energy and forces
   NPACO  =    256;   APACO  = 16.0  distance and # of slots for P.C.
   PSTRESS=    0.0 pullay stress

  Mass of Ions in am
   POMASS =  87.62 50.94 16.00
  Ionic Valenz
   ZVAL   =  10.00  5.00  6.00
  Atomic Wigner-Seitz radii
   RWIGS  =  -1.00 -1.00 -1.00
  virtual crystal weights 
   VCA    =   1.00  1.00  1.00
   NELECT =      33.0000    total number of electrons
   NUPDOWN=      -1.0000    fix difference up-down

 DOS related values:
   EMIN   =  10.00;   EMAX   =-10.00  energy-range for DOS
   EFERMI =   0.00
   ISMEAR =    -5;   SIGMA  =   0.20  broadening in eV -4-tet -1-fermi 0-gaus

 Electronic relaxation 2 (details)
   IALGO  =     38    algorithm
   LDIAG  =      T    sub-space diagonalisation (order eigenvalues)
   LSUBROT=      F    optimize rotation matrix (better conditioning)
   TURBO    =      0    0=normal 1=particle mesh
   IRESTART =      0    0=no restart 2=restart with 2 vectors
   NREBOOT  =      0    no. of reboots
   NMIN     =      0    reboot dimension
   EREF     =   0.00    reference energy to select bands
   IMIX   =      4    mixing-type and parameters
     AMIX     =   0.40;   BMIX     =  1.00
     AMIX_MAG =   1.60;   BMIX_MAG =  1.00
     AMIN     =   0.10
     WC   =   100.;   INIMIX=   1;  MIXPRE=   1;  MAXMIX= -45

 Intra band minimization:
   WEIMIN = 0.0000     energy-eigenvalue tresh-hold
   EBREAK =  0.78E-10  absolut break condition
   DEPER  =   0.30     relativ break condition  

   TIME   =   0.40     timestep for ELM

  volume/ion in A,a.u.               =      11.47        77.42
  Fermi-wavevector in a.u.,A,eV,Ry     =   1.361585  2.573023 25.224031  1.853914
  Thomas-Fermi vector in A             =   2.488148

 Write flags
   LWAVE        =      T    write WAVECAR
   LDOWNSAMPLE  =      F    k-point downsampling of WAVECAR
   LCHARG       =      T    write CHGCAR
   LVTOT        =      F    write LOCPOT, total local potential
   LVHAR        =      F    write LOCPOT, Hartree potential only
   LELF         =      F    write electronic localiz. function (ELF)
   LORBIT       =     11    0 simple, 1 ext, 2 COOP (PROOUT), +10 PAW based schemes


 Dipole corrections
   LMONO  =      F    monopole corrections only (constant potential shift)
   LDIPOL =      F    correct potential (dipole corrections)
   IDIPOL =      0    1-x, 2-y, 3-z, 4-all directions 
   EPSILON=  1.0000000 bulk dielectric constant

 Exchange correlation treatment:
   GGA     =    --    GGA type
   LEXCH   =     8    internal setting for exchange type
   VOSKOWN=      0    Vosko Wilk Nusair interpolation
   LHFCALC =     F    Hartree Fock is set to
   LHFONE  =     F    Hartree Fock one center treatment
   AEXX    =    0.0000 exact exchange contribution

 Linear response parameters
   LEPSILON=     F    determine dielectric tensor
   LRPA    =     F    only Hartree local field effects (RPA)
   LNABLA  =     F    use nabla operator in PAW spheres
   LVEL    =     F    velocity operator in full k-point grid
   LINTERFAST=   F  fast interpolation
   KINTER  =     0    interpolate to denser k-point grid
   CSHIFT  =0.1000    complex shift for real part using Kramers Kronig
   OMEGAMAX=  -1.0    maximum frequency
   DEG_THRESHOLD= 0.2000000E-02 threshold for treating states as degnerate
   RTIME   =   -0.100 relaxation time in fs
  (WPLASMAI=    0.000 imaginary part of plasma frequency in eV, 0.658/RTIME)
   DFIELD  = 0.0000000 0.0000000 0.0000000 field for delta impulse in time

 Orbital magnetization related:
   ORBITALMAG=     F  switch on orbital magnetization
   LCHIMAG   =     F  perturbation theory with respect to B field
   DQ        =  0.001000  dq finite difference perturbation B field
   LLRAUG    =     F  two centre corrections for induced B field



--------------------------------------------------------------------------------------------------------


 Static calculation
 charge density and potential will be updated during run
 non-spin polarized calculation
 Variant of blocked Davidson
 Davidson routine will perform the subspace rotation
 perform sub-space diagonalisation
    after iterative eigenvector-optimisation
 modified Broyden-mixing scheme, WC =      100.0
 initial mixing is a Kerker type mixing with AMIX =  0.4000 and BMIX =      1.0000
 Hartree-type preconditioning will be used
 using additional bands           15
 reciprocal scheme for non local part
 use partial core corrections
 calculate Harris-corrections to forces   (improved forces if not selfconsistent)
 use gradient corrections 
 use of overlap-Matrix (Vanderbilt PP)
 Fermi weights with tetrahedron method with Bloechl corrections


--------------------------------------------------------------------------------------------------------


  energy-cutoff  :      400.00
[...]
      8      -1.2276      2.00000
      9      -0.7483      2.00000
     10      -0.7249      2.00000
     11      -0.3615      2.00000
     12      -0.0759      2.00000
     13       0.0952      2.00000
     14       2.3985      2.00000
     15       2.4441      2.00000
     16       2.9950      2.00000
     17       6.0873      0.00000
     18       6.1358      0.00000
     19       6.2703      0.00000
     20       8.9605      0.00000
     21       9.7417      0.00000
     22      11.3764      0.00000
     23      11.6906      0.00000
     24      11.8765      0.00000
     25      12.0997      0.00000
     26      13.1589      0.00000
     27      14.9717      0.00000
     28      16.6715      0.00000
     29      17.7775      0.00000
     30      19.0772      0.00000
     31      19.8563      0.00000
     32      20.0622      0.00000

 k-point   119 :       0.3333    0.3333    0.4444
  band No.  band energies     occupation 
      1     -29.1815      2.00000
      2     -13.6557      2.00000
      3     -13.1891      2.00000
      4     -13.1662      2.00000
      5     -11.4522      2.00000
      6     -11.2200      2.00000
      7     -11.0748      2.00000
      8      -1.3471      2.00000
      9      -0.9161      2.00000
     10      -0.7326      2.00000
     11      -0.6448      2.00000
     12      -0.3919      2.00000
     13      -0.2581      2.00000
     14       2.7721      2.00000
     15       2.8003      2.00000
     16       3.0999      2.00000
     17       6.3356      0.00000
     18       6.3910      0.00000
     19       6.4071      0.00000
     20       9.6927      0.00000
     21       9.9221      0.00000
     22      11.1633      0.00000
     23      11.2594      0.00000
     24      11.4658      0.00000
     25      12.5731      0.00000
     26      13.0481      0.00000
     27      14.7618      0.00000
     28      17.2533      0.00000
     29      18.0755      0.00000
     30      19.2490      0.00000
     31      19.5581      0.00000
     32      20.5245      0.00000

 k-point   120 :       0.4444    0.3333    0.4444
  band No.  band energies     occupation 
      1     -29.1752      2.00000
      2     -13.4041      2.00000
      3     -13.2348      2.00000
      4     -13.0861      2.00000
      5     -11.4559      2.00000
      6     -11.3298      2.00000
      7     -11.2532      2.00000
      8      -1.7109      2.00000
      9      -1.0047      2.00000
     10      -0.7550      2.00000
     11      -0.7110      2.00000
     12      -0.5943      2.00000
     13      -0.1925      2.00000
     14       2.9075      2.00000
     15       2.9810      2.00000
     16       3.2136      2.00000
     17       6.3900      0.00000
     18       6.6178      0.00000
     19       6.6266      0.00000
     20       9.6773      0.00000
     21      10.4382      0.00000
     22      10.9274      0.00000
     23      11.0149      0.00000
     24      11.3038      0.00000
     25      12.7863      0.00000
     26      13.2619      0.00000
     27      14.6519      0.00000
     28      17.6781      0.00000
     29      17.8720      0.00000
     30      19.0290      0.00000
     31      19.7524      0.00000
     32      20.4014      0.00000

 k-point   121 :       0.0000    0.4444    0.4444
  band No.  band energies     occupation 
      1     -29.1975      2.00000
      2     -13.9449      2.00000
      3     -13.5221      2.00000
      4     -13.4324      2.00000
      5     -11.0920      2.00000
      6     -10.8422      2.00000
      7     -10.7402      2.00000
      8      -1.5058      2.00000
      9      -1.2676      2.00000
     10      -0.8685      2.00000
     11       0.3469      2.00000
     12       0.5731      2.00000
     13       1.2615      2.00000
     14       1.5328      2.00000
     15       1.5781      2.00000
     16       3.0981      2.00000
     17       5.8914      0.00000
     18       6.1241      0.00000
     19       6.3610      0.00000
     20       7.5833      0.00000
     21      10.1675      0.00000
     22      11.4593      0.00000
     23      11.5837      0.00000
     24      13.1579      0.00000
     25      13.4169      0.00000
     26      13.4981      0.00000
     27      15.1296      0.00000
     28      16.1386      0.00000
     29      16.5254      0.00000
     30      18.5790      0.00000
     31      18.7048      0.00000
     32      18.8767      0.00000

 k-point   122 :       0.1111    0.4444    0.4444
  band No.  band energies     occupation 
      1     -29.1942      2.00000
      2     -13.8753      2.00000
      3     -13.4793      2.00000
      4     -13.3884      2.00000
      5     -11.1601      2.00000
      6     -10.9014      2.00000
      7     -10.8093      2.00000
      8      -1.5003      2.00000
      9      -1.1570      2.00000
     10      -0.8649      2.00000
     11       0.0903      2.00000
     12       0.3099      2.00000
     13       0.7987      2.00000
     14       1.8874      2.00000
     15       1.9120      2.00000
     16       3.1119      2.00000
     17       5.9635      0.00000
     18       6.1794      0.00000
     19       6.3861      0.00000
     20       8.0431      0.00000
     21      10.1690      0.00000
     22      11.3734      0.00000
     23      11.7000      0.00000
     24      12.6641      0.00000
     25      12.9040      0.00000
     26      13.5507      0.00000
     27      15.2753      0.00000
     28      16.4684      0.00000
     29      16.5882      0.00000
     30      18.7904      0.00000
     31      18.9459      0.00000
     32      19.1422      0.00000

 k-point   123 :       0.2222    0.4444    0.4444
  band No.  band energies     occupation 
      1     -29.1859      2.00000
      2     -13.6888      2.00000
      3     -13.3620      2.00000
      4     -13.2676      2.00000
      5     -11.3181      2.00000
      6     -11.0689      2.00000
      7     -10.9944      2.00000
      8      -1.4938      2.00000
      9      -0.8892      2.00000
     10      -0.8522      2.00000
     11      -0.3264      2.00000
     12      -0.1600      2.00000
     13      -0.0228      2.00000
     14       2.4553      2.00000
     15       2.4884      2.00000
     16       3.1483      2.00000
     17       6.1689      0.00000
     18       6.3424      0.00000
     19       6.4512      0.00000
     20       9.0242      0.00000
     21      10.1768      0.00000
     22      11.1183      0.00000
     23      11.8008      0.00000
     24      12.0001      0.00000
     25      12.2116      0.00000
     26      13.4138      0.00000
     27      15.0016      0.00000
     28      17.0143      0.00000
     29      17.1910      0.00000
     30      19.2385      0.00000
     31      19.6671      0.00000
     32      19.7165      0.00000

 k-point   124 :       0.3333    0.4444    0.4444
  band No.  band energies     occupation 
      1     -29.1763      2.00000
      2     -13.4501      2.00000
      3     -13.2156      2.00000
      4     -13.1085      2.00000
      5     -11.4714      2.00000
      6     -11.2978      2.00000
      7     -11.2312      2.00000
      8      -1.5505      2.00000
      9      -1.0276      2.00000
     10      -0.8042      2.00000
     11      -0.6532      2.00000
     12      -0.5153      2.00000
     13      -0.3408      2.00000
     14       2.9321      2.00000
     15       2.9827      2.00000
     16       3.1978      2.00000
     17       6.4486      0.00000
     18       6.5271      0.00000
     19       6.5758      0.00000
     20       9.8822      0.00000
     21      10.2505      0.00000
     22      10.8526      0.00000
     23      11.0929      0.00000
     24      11.3023      0.00000
     25      12.7653      0.00000
     26      13.2387      0.00000
     27      14.5488      0.00000
     28      17.6668      0.00000
     29      17.8497      0.00000
     30      19.1676      0.00000
     31      19.8371      0.00000
     32      20.4067      0.00000

 k-point   125 :       0.4444    0.4444    0.4444
  band No.  band energies     occupation 
      1     -29.1701      2.00000
      2     -13.2555      2.00000
      3     -13.1331      2.00000
      4     -12.9797      2.00000
      5     -11.5349      2.00000
      6     -11.4835      2.00000
      7     -11.4237      2.00000
      8      -1.8005      2.00000
      9      -1.2670      2.00000
     10      -0.8152      2.00000
     11      -0.7803      2.00000
     12      -0.5203      2.00000
     13      -0.3268      2.00000
     14       3.1772      2.00000
     15       3.2221      2.00000
     16       3.2831      2.00000
     17       6.5774      0.00000
     18       6.6696      0.00000
     19       6.7641      0.00000
     20      10.0615      0.00000
     21      10.5129      0.00000
     22      10.6198      0.00000
     23      10.8194      0.00000
     24      10.8764      0.00000
     25      13.0137      0.00000
     26      13.3849      0.00000
     27      14.3615      0.00000
     28      18.1257      0.00000
     29      18.3136      0.00000
     30      18.3212      0.00000
     31      20.0815      0.00000
     32      20.5579      0.00000


--------------------------------------------------------------------------------------------------------


 soft charge-density along one line, spin component           1
         0         1         2         3         4         5         6         7         8         9
 total charge-density along one line

 pseudopotential strength for first ion, spin component:           1
-11.670  -2.368  -0.000   0.000  -0.000  -0.000   0.000  -0.000
 -2.368  -2.069  -0.000   0.000  -0.000  -0.000   0.000   0.000
 -0.000  -0.000 -14.750   0.000  -0.000 -14.473   0.000  -0.000
  0.000   0.000   0.000 -14.751  -0.000   0.000 -14.475  -0.000
 -0.000  -0.000  -0.000  -0.000 -14.750  -0.000  -0.000 -14.473
 -0.000  -0.000 -14.473   0.000  -0.000 -14.201   0.000  -0.000
  0.000   0.000   0.000 -14.475  -0.000   0.000 -14.202  -0.000
 -0.000   0.000  -0.000  -0.000 -14.473  -0.000  -0.000 -14.201
 -0.000  -0.000  -0.000  -0.000  -0.000  -0.000  -0.000  -0.000
  0.000   0.000   0.000  -0.000  -0.000   0.000  -0.000  -0.000
 -0.000  -0.000   0.000   0.000   0.000   0.000   0.000   0.000
 -0.000  -0.000  -0.000  -0.000   0.000  -0.000  -0.000   0.000
  0.000  -0.000  -0.000   0.000   0.000  -0.000   0.000  -0.000
 -0.000  -0.000  -0.000  -0.000  -0.000  -0.000  -0.000  -0.000
  0.000   0.000   0.000  -0.000  -0.000   0.000  -0.000  -0.000
 -0.001  -0.000   0.000   0.000   0.000   0.000   0.000   0.000
 -0.000  -0.000  -0.000   0.000   0.000  -0.000   0.000   0.000
  0.000  -0.000  -0.000   0.000   0.000  -0.000   0.000   0.000
 total augmentation occupancy for first ion, spin component:           1
  1.998  -0.016   0.000   0.000   0.000   0.000   0.000   0.000  -0.000   0.000  -0.002   0.000   0.001   0.000   0.000   0.002
 -0.016   0.390   0.000   0.000   0.000   0.000   0.000   0.000   0.000   0.000  -0.076   0.000   0.023   0.000   0.000   0.041
  0.000   0.000   8.906   0.000  -0.000  -7.304   0.000  -0.000   0.000   0.000   0.000   0.000   0.000   0.000   0.000   0.000
  0.000   0.000   0.000   8.373   0.000   0.000  -6.799   0.000   0.000   0.000   0.000   0.000   0.000   0.000   0.000   0.000
  0.000   0.000   0.000   0.000   9.087  -0.000   0.000  -7.481   0.000   0.000   0.000   0.000   0.000   0.000   0.000   0.000
  0.000   0.000  -7.304   0.000  -0.000   7.739   0.000   0.000   0.000   0.000   0.000   0.000   0.000   0.000   0.000   0.000
  0.000   0.000   0.000  -6.799   0.000   0.000   7.264   0.000   0.000   0.000   0.000   0.000   0.000   0.000   0.000   0.000
  0.000   0.000  -0.000   0.000  -7.481   0.000   0.000   7.913   0.000   0.000   0.000   0.000   0.000   0.000   0.000   0.000
  0.000   0.000   0.000   0.000   0.000   0.000   0.000   0.000   6.032   0.000   0.000   0.000   0.000  -3.351   0.000   0.000
  0.000   0.000   0.000   0.000   0.000   0.000   0.000   0.000   0.000   4.992   0.000   0.000   0.000   0.000  -2.781   0.000
 -0.002  -0.076   0.000   0.000   0.000   0.000   0.000   0.000   0.000   0.000   3.674   0.000   0.114  -0.000   0.000  -2.031
  0.000   0.000   0.000   0.000   0.000   0.000   0.000   0.000   0.000   0.000   0.000   5.353   0.000   0.000   0.000   0.000
  0.001   0.023   0.000   0.000   0.000   0.000   0.000   0.000  -0.000   0.000   0.114   0.000   3.164   0.000   0.000  -0.062
  0.000   0.000   0.000   0.000   0.000   0.000   0.000   0.000  -3.351   0.000  -0.000   0.000   0.000   1.864   0.000   0.000
  0.000   0.000   0.000   0.000   0.000   0.000   0.000   0.000   0.000  -2.781   0.000   0.000   0.000   0.000   1.551   0.000
  0.002   0.041   0.000   0.000   0.000   0.000   0.000   0.000   0.000   0.000  -2.031   0.000  -0.062   0.000   0.000   1.125
  0.000   0.000   0.000   0.000   0.000   0.000   0.000   0.000   0.000  -0.000   0.000  -2.978   0.000   0.000  -0.000   0.000
 -0.001  -0.012   0.000   0.000   0.000   0.000   0.000   0.000  -0.000   0.000  -0.062   0.000  -1.753  -0.000   0.000   0.034


------------------------ aborting loop because EDIFF is reached ----------------------------------------





 total charge     

# of ion       s       p       d       tot
------------------------------------------
    1        1.999   5.793   0.213   8.005
    2        0.541   1.074   3.604   5.219
    3        1.586   3.470   0.000   5.056
    4        1.593   3.491   0.000   5.084
    5        1.590   3.482   0.000   5.072
--------------------------------------------------
tot          7.308  17.309   3.817  28.434

    CHARGE:  cpu time    0.0520: real time    0.0513
    FORLOC:  cpu time    0.0000: real time    0.0004
    FORNL :  cpu time    0.1600: real time    0.1602
    STRESS:  cpu time    2.6440: real time    2.6433
    FORCOR:  cpu time    0.0040: real time    0.0046
    FORHAR:  cpu time    0.0000: real time    0.0013
    MIXING:  cpu time    0.0000: real time    0.0047
    OFIELD:  cpu time    0.0000: real time    0.0000

  FORCE on cell =-STRESS in cart. coord.  units (eV):
  Direction    XX          YY          ZZ          XY          YZ          ZX
  --------------------------------------------------------------------------------------
  Alpha Z   183.49450   183.49450   183.49450
  Ewald    -664.48188  -677.49512  -700.14273     0.00000    -0.00000    -0.00000
  Hartree   147.61251   144.64573   138.12970    -0.00000    -0.00000    -0.00000
  E(xc)    -151.35146  -151.19019  -151.00179    -0.00000     0.00000    -0.00000
  Local      -9.58924     5.69972    34.45300    -0.00000    -0.00000     0.00000
  n-local  -117.49893  -118.41494  -119.53019    -0.68941    -0.48054    -0.55049
  augment    42.28486    42.48290    42.72356     0.00000     0.00000    -0.00000
  Kinetic   569.93723   569.57297   568.74877    -2.19085    -1.98362    -2.06201
  Fock        0.00000     0.00000     0.00000     0.00000     0.00000     0.00000
  -------------------------------------------------------------------------------------
  Total       0.40759    -1.20443    -3.12519     0.00000     0.00000     0.00000
  in kB      11.38487   -33.64242   -87.29361     0.00000     0.00000     0.00000
  external pressure =      -36.52 kB  Pullay stress =        0.00 kB


 VOLUME and BASIS-vectors are now :
 -----------------------------------------------------------------------------
  energy-cutoff  :      400.00
  volume of cell :       57.36
      direct lattice vectors                 reciprocal lattice vectors
     3.770000000  0.000000000  0.000000000     0.265251989  0.000000000  0.000000000
     0.000000000  3.842090000  0.000000000     0.000000000  0.260275007  0.000000000
     0.000000000  0.000000000  3.960000000     0.000000000  0.000000000  0.252525253

  length of vectors
     3.770000000  3.842090000  3.960000000     0.265251989  0.260275007  0.252525253


 FORCES acting on ions
    electron-ion (+dipol)            ewald-force                    non-local-force                 convergence-correction
 -----------------------------------------------------------------------------------------------
   -.676E-14 0.656E-14 0.453E-14   0.436E-14 -.578E-14 -.388E-14   0.000E+00 0.000E+00 0.000E+00   0.312E-13 -.203E-14 -.161E-13
   0.378E-13 0.634E-12 -.281E-12   -.530E-14 -.186E-14 -.105E-14   0.000E+00 0.000E+00 0.000E+00   -.122E-13 0.370E-14 0.504E-14
   0.171E-12 0.668E-13 0.161E-12   -.128E-13 -.113E-14 0.201E-14   0.000E+00 0.000E+00 0.000E+00   -.159E-13 0.142E-13 -.755E-14
   -.132E-13 0.683E-13 0.587E-13   0.439E-14 0.676E-14 0.349E-14   0.000E+00 0.000E+00 0.000E+00   0.302E-13 0.994E-14 0.139E-13
   0.172E-12 0.140E-13 -.672E-12   0.100E-13 0.122E-14 -.165E-15   0.000E+00 0.000E+00 0.000E+00   -.190E-13 -.825E-14 0.969E-14
 -----------------------------------------------------------------------------------------------
   0.361E-12 0.790E-12 -.728E-12   0.734E-15 -.795E-15 0.409E-15   0.000E+00 0.000E+00 0.000E+00   0.144E-13 0.175E-13 0.502E-14


 POSITION                                       TOTAL-FORCE (eV/Angst)
 -----------------------------------------------------------------------------------
      0.00000      0.00000      0.00000         0.000000      0.000000      0.000000
      1.88500      1.92104      1.98000         0.000000      0.000000      0.000000
      1.88500      1.92104      0.00000         0.000000      0.000000      0.000000
      0.00000      1.92104      1.98000         0.000000      0.000000      0.000000
      1.88500      0.00000      1.98000         0.000000      0.000000      0.000000
 -----------------------------------------------------------------------------------
    total drift:                                0.000000      0.000000     -0.000000


--------------------------------------------------------------------------------------------------------



  FREE ENERGIE OF THE ION-ELECTRON SYSTEM (eV)
  ---------------------------------------------------
  free  energy   TOTEN  =       -39.05206917 eV

  energy  without entropy=      -39.05206917  energy(sigma->0) =      -39.05206917



--------------------------------------------------------------------------------------------------------


    POTLOK:  cpu time    0.0120: real time    0.0094


--------------------------------------------------------------------------------------------------------


 writing wavefunctions
     LOOP+:  cpu time  689.8280: real time  809.9814
    4ORBIT:  cpu time    0.0000: real time    0.0000



 total charge     

# of ion       s       p       d       tot
------------------------------------------
    1        1.999   5.793   0.213   8.005
    2        0.541   1.074   3.604   5.219
    3        1.586   3.470   0.000   5.056
    4        1.593   3.491   0.000   5.084
    5        1.590   3.482   0.000   5.072
--------------------------------------------------
tot          7.308  17.309   3.817  28.434

 BZINTS: Fermi energy:  5.261061; 33.000000 electrons
         Band energy:-188.154906;  BLOECHL correction: -0.038486

 total amount of memory used by VASP MPI-rank0    91863. kBytes
=======================================================================

   base      :      30000. kBytes
   nonl-proj :      58839. kBytes
   fftplans  :        137. kBytes
   grid      :        506. kBytes
   one-center:         77. kBytes
   wavefun   :       2304. kBytes

  
  
 General timing and accounting informations for this job:
 ========================================================
  
                  Total CPU time used (sec):      696.876
                            User time (sec):      678.260
                          System time (sec):       18.616
                         Elapsed time (sec):      818.243
  
                   Maximum memory used (kb):      200176.
                   Average memory used (kb):           0.
  
                          Minor page faults:      1170471
                          Major page faults:           36
                 Voluntary context switches:         1836
