Automatically generated mesh
      18
Reciprocal lattice
    0.00000000000000    0.00000000000000    0.00000000000000             1
    0.33333333333333    0.00000000000000    0.00000000000000             1
   -0.33333333333333    0.00000000000000   -0.00000000000000             1
    0.00000000000000    0.33333333333333    0.00000000000000             1
    0.33333333333333    0.33333333333333    0.00000000000000             1
   -0.33333333333333    0.33333333333333   -0.00000000000000             1
    0.00000000000000   -0.33333333333333    0.00000000000000             1
    0.33333333333333   -0.33333333333333    0.00000000000000             1
   -0.33333333333333   -0.33333333333333   -0.00000000000000             1
    0.00000000000000    0.00000000000000    0.50000000000000             1
    0.33333333333333    0.00000000000000    0.50000000000000             1
   -0.33333333333333    0.00000000000000    0.50000000000000             1
    0.00000000000000    0.33333333333333    0.50000000000000             1
    0.33333333333333    0.33333333333333    0.50000000000000             1
   -0.33333333333333    0.33333333333333    0.50000000000000             1
    0.00000000000000   -0.33333333333333    0.50000000000000             1
    0.33333333333333   -0.33333333333333    0.50000000000000             1
   -0.33333333333333   -0.33333333333333    0.50000000000000             1
Tetrahedra
       108    0.00925925925926
         1         1         2         5        10
         1         1         4         5        10
         1         4         5        10        13
         1         2         5        10        11
         1         5        10        11        14
         1         5        10        13        14
         1         2         3         6        11
         1         2         5         6        11
         1         5         6        11        14
         1         3         6        11        12
         1         6        11        12        15
         1         6        11        14        15
         1         1         3         4        12
         1         3         4         6        12
         1         4         6        12        15
         1         1         4        10        12
         1         4        10        12        13
         1         4        12        13        15
         1         4         5         8        13
         1         4         7         8        13
         1         7         8        13        16
         1         5         8        13        14
         1         8        13        14        17
         1         8        13        16        17
         1         5         6         9        14
         1         5         8         9        14
         1         8         9        14        17
         1         6         9        14        15
         1         9        14        15        18
         1         9        14        17        18
         1         4         6         7        15
         1         6         7         9        15
         1         7         9        15        18
         1         4         7        13        15
         1         7        13        15        16
         1         7        15        16        18
         1         2         7         8        16
         1         1         2         7        16
         1         1         2        10        16
         1         2         8        16        17
         1         2        11        16        17
         1         2        10        11        16
         1         3         8         9        17
         1         2         3         8        17
         1         2         3        11        17
         1         3         9        17        18
         1         3        12        17        18
         1         3        11        12        17
         1         1         7         9        18
         1         1         3         9        18
         1         1         3        12        18
         1         1         7        16        18
         1         1        10        16        18
         1         1        10        12        18
         1         1        10        11        14
         1         1        10        13        14
         1         1         4        13        14
         1         1         2        11        14
         1         1         2         5        14
         1         1         4         5        14
         1         2        11        12        15
         1         2        11        14        15
         1         2         5        14        15
         1         2         3        12        15
         1         2         3         6        15
         1         2         5         6        15
         1         3        10        12        13
         1         3        12        13        15
         1         3         6        13        15
         1         1         3        10        13
         1         1         3         4        13
         1         3         4         6        13
         1         4        13        14        17
         1         4        13        16        17
         1         4         7        16        17
         1         4         5        14        17
         1         4         5         8        17
         1         4         7         8        17
         1         5        14        15        18
         1         5        14        17        18
         1         5         8        17        18
         1         5         6        15        18
         1         5         6         9        18
         1         5         8         9        18
         1         6        13        15        16
         1         6        15        16        18
         1         6         9        16        18
         1         4         6        13        16
         1         4         6         7        16
         1         6         7         9        16
         1         7        11        16        17
         1         7        10        11        16
         1         1         7        10        11
         1         7         8        11        17
         1         2         7         8        11
         1         1         2         7        11
         1         8        12        17        18
         1         8        11        12        17
         1         2         8        11        12
         1         8         9        12        18
         1         3         8         9        12
         1         2         3         8        12
         1         9        10        16        18
         1         9        10        12        18
         1         3         9        10        12
         1         7         9        10        16
         1         1         7         9        10
         1         1         3         9        10
