  10  10   1   0
  0.9226893E+01  0.5252494E-09  0.5252494E-09  0.5252494E-09  0.5000000E-15
  1.000000000000000E-004
  CAR 
 unknown system                        
      6.00000000     -4.00000000 2001    6.8338870      1.00000000
