
             +---------------------------------------------------+
             |                                                   |
             |                   WANNIER90                       |
             |                                                   |
             +---------------------------------------------------+
             |                                                   |
             |        Welcome to the Maximally-Localized         |
             |        Generalized Wannier Functions code         |
             |            http://www.wannier.org                 |
             |                                                   |
             |                                                   |
             |  Wannier90 Developer Group:                       |
             |    Giovanni Pizzi    (EPFL)                       |
             |    Valerio Vitale    (Cambridge)                  |
             |    David Vanderbilt  (Rutgers University)         |
             |    Nicola Marzari    (EPFL)                       |
             |    Ivo Souza         (Universidad del Pais Vasco) |
             |    Arash A. Mostofi  (Imperial College London)    |
             |    Jonathan R. Yates (University of Oxford)       |
             |                                                   |
             |  For the full list of Wannier90 3.x authors,      |
             |  please check the code documentation and the      |
             |  README on the GitHub page of the code            |
             |                                                   |
             |                                                   |
             |  Please cite                                      |
             |                                                   |
             |  [ref] "Wannier90 as a community code:            |
             |        new features and applications",            |
             |        G. Pizzi et al., J. Phys. Cond. Matt. 32,  |
             |        165902 (2020).                             |
             |        http://doi.org/10.1088/1361-648X/ab51ff    |
             |                                                   |
             |  in any publications arising from the use of      |
             |  this code. For the method please cite            |
             |                                                   |
             |  [ref] "Maximally Localized Generalised Wannier   |
             |         Functions for Composite Energy Bands"     |
             |         N. Marzari and D. Vanderbilt              |
             |         Phys. Rev. B 56 12847 (1997)              |
             |                                                   |
             |  [ref] "Maximally Localized Wannier Functions     |
             |         for Entangled Energy Bands"               |
             |         I. Souza, N. Marzari and D. Vanderbilt    |
             |         Phys. Rev. B 65 035109 (2001)             |
             |                                                   |
             |                                                   |
             | Copyright (c) 1996-2020                           |
             |        The Wannier90 Developer Group and          |
             |        individual contributors                    |
             |                                                   |
             |      Release: 3.1.0        5th March    2020      |
             |                                                   |
             | This program is free software; you can            |
             | redistribute it and/or modify it under the terms  |
             | of the GNU General Public License as published by |
             | the Free Software Foundation; either version 2 of |
             | the License, or (at your option) any later version|
             |                                                   |
             | This program is distributed in the hope that it   |
             | will be useful, but WITHOUT ANY WARRANTY; without |
             | even the implied warranty of MERCHANTABILITY or   |
             | FITNESS FOR A PARTICULAR PURPOSE. See the GNU     |
             | General Public License for more details.          |
             |                                                   |
             | You should have received a copy of the GNU General|
             | Public License along with this program; if not,   |
             | write to the Free Software Foundation, Inc.,      |
             | 675 Mass Ave, Cambridge, MA 02139, USA.           |
             |                                                   |
             +---------------------------------------------------+
             |    Execution started on  1Jul2021 at 17:37:13     |
             +---------------------------------------------------+
 
 ******************************************************************************
 * -> Using CODATA 2006 constant values                                       *
 *    (http://physics.nist.gov/cuu/Constants/index.html)                      *
 * -> Using Bohr value from CODATA                                            *
 ******************************************************************************
 

 Running in serial (with parallel executable)

                                    ------
                                    SYSTEM
                                    ------

                              Lattice Vectors (Ang)
                    a_1    -1.939944   1.939944   6.443649
                    a_2     1.939944  -1.939944   6.443649
                    a_3     1.939944   1.939944  -6.443649

                   Unit Cell Volume:      96.99967  (Ang^3)

                        Reciprocal-Space Vectors (Ang^-1)
                    b_1     0.000000   1.619424   0.487549
                    b_2     1.619424   0.000000   0.487549
                    b_3     1.619424   1.619424  -0.000000
  
 *----------------------------------------------------------------------------*
 |   Site       Fractional Coordinate          Cartesian Coordinate (Ang)     |
 +----------------------------------------------------------------------------+
 | O    1   0.50000   0.00000   0.50000   |    0.00000   1.93994   0.00000    |
 | O    2   0.00000   0.50000   0.50000   |    1.93994   0.00000   0.00000    |
 | O    3   0.16252   0.16252  -0.00000   |    0.00000   0.00000   2.09442    |
 | O    4   0.83748   0.83748   1.00000   |    1.93994   1.93994   4.34922    |
 | Ru   1  -0.00000  -0.00000   0.00000   |   -0.00000  -0.00000  -0.00000    |
 | Sr   1   0.64768   0.64768   1.00000   |    1.93994   1.93994   1.90314    |
 | Sr   2   0.35232   0.35232  -0.00000   |   -0.00000  -0.00000   4.54051    |
 *----------------------------------------------------------------------------*
                                -----------
                                PROJECTIONS
                                -----------
  
 +----------------------------------------------------------------------------+
 |     Frac. Coord.   l mr  r        z-axis               x-axis          Z/a |
 +----------------------------------------------------------------------------+
 | -0.00 -0.00  0.00  2  2  1  0.000  0.000  1.000  1.000  0.000  0.000   1.0 |
 | -0.00 -0.00  0.00  2  3  1  0.000  0.000  1.000  1.000  0.000  0.000   1.0 |
 | -0.00 -0.00  0.00  2  5  1  0.000  0.000  1.000  1.000  0.000  0.000   1.0 |
 +----------------------------------------------------------------------------+
  
                                ------------
                                K-POINT GRID
                                ------------
  
             Grid size = 12 x 12 x 12      Total points = 1728
  
 *----------------------------------------------------------------------------*
 | k-point      Fractional Coordinate        Cartesian Coordinate (Ang^-1)    |
 +----------------------------------------------------------------------------+
 |     1    0.00000   0.00000   0.00000   |    0.00000   0.00000   0.00000    |
 |     2    0.00000   0.00000   0.08333   |    0.13495   0.13495  -0.00000    |
 |     3    0.00000   0.00000   0.16667   |    0.26990   0.26990  -0.00000    |
 |     4    0.00000   0.00000   0.25000   |    0.40486   0.40486  -0.00000    |
 |     5    0.00000   0.00000   0.33333   |    0.53981   0.53981  -0.00000    |
 |     6    0.00000   0.00000   0.41667   |    0.67476   0.67476  -0.00000    |
 |     7    0.00000   0.00000   0.50000   |    0.80971   0.80971  -0.00000    |
 |     8    0.00000   0.00000   0.58333   |    0.94466   0.94466  -0.00000    |
 |     9    0.00000   0.00000   0.66667   |    1.07962   1.07962  -0.00000    |
 |    10    0.00000   0.00000   0.75000   |    1.21457   1.21457  -0.00000    |
 |    11    0.00000   0.00000   0.83333   |    1.34952   1.34952  -0.00000    |
 |    12    0.00000   0.00000   0.91667   |    1.48447   1.48447  -0.00000    |
 |    13    0.00000   0.08333   0.00000   |    0.13495   0.00000   0.04063    |
 |    14    0.00000   0.08333   0.08333   |    0.26990   0.13495   0.04063    |
 |    15    0.00000   0.08333   0.16667   |    0.40486   0.26990   0.04063    |
 |    16    0.00000   0.08333   0.25000   |    0.53981   0.40486   0.04063    |
 |    17    0.00000   0.08333   0.33333   |    0.67476   0.53981   0.04063    |
 |    18    0.00000   0.08333   0.41667   |    0.80971   0.67476   0.04063    |
 |    19    0.00000   0.08333   0.50000   |    0.94466   0.80971   0.04063    |
 |    20    0.00000   0.08333   0.58333   |    1.07962   0.94466   0.04063    |
 |    21    0.00000   0.08333   0.66667   |    1.21457   1.07962   0.04063    |
 |    22    0.00000   0.08333   0.75000   |    1.34952   1.21457   0.04063    |
 |    23    0.00000   0.08333   0.83333   |    1.48447   1.34952   0.04063    |
 |    24    0.00000   0.08333   0.91667   |    1.61942   1.48447   0.04063    |
 |    25    0.00000   0.16667   0.00000   |    0.26990   0.00000   0.08126    |
 |    26    0.00000   0.16667   0.08333   |    0.40486   0.13495   0.08126    |
 |    27    0.00000   0.16667   0.16667   |    0.53981   0.26990   0.08126    |
 |    28    0.00000   0.16667   0.25000   |    0.67476   0.40486   0.08126    |
 |    29    0.00000   0.16667   0.33333   |    0.80971   0.53981   0.08126    |
 |    30    0.00000   0.16667   0.41667   |    0.94466   0.67476   0.08126    |
 |    31    0.00000   0.16667   0.50000   |    1.07962   0.80971   0.08126    |
 |    32    0.00000   0.16667   0.58333   |    1.21457   0.94466   0.08126    |
 |    33    0.00000   0.16667   0.66667   |    1.34952   1.07962   0.08126    |
 |    34    0.00000   0.16667   0.75000   |    1.48447   1.21457   0.08126    |
 |    35    0.00000   0.16667   0.83333   |    1.61942   1.34952   0.08126    |
 |    36    0.00000   0.16667   0.91667   |    1.75438   1.48447   0.08126    |
 |    37    0.00000   0.25000   0.00000   |    0.40486   0.00000   0.12189    |
 |    38    0.00000   0.25000   0.08333   |    0.53981   0.13495   0.12189    |
 |    39    0.00000   0.25000   0.16667   |    0.67476   0.26990   0.12189    |
 |    40    0.00000   0.25000   0.25000   |    0.80971   0.40486   0.12189    |
 |    41    0.00000   0.25000   0.33333   |    0.94466   0.53981   0.12189    |
 |    42    0.00000   0.25000   0.41667   |    1.07962   0.67476   0.12189    |
 |    43    0.00000   0.25000   0.50000   |    1.21457   0.80971   0.12189    |
 |    44    0.00000   0.25000   0.58333   |    1.34952   0.94466   0.12189    |
 |    45    0.00000   0.25000   0.66667   |    1.48447   1.07962   0.12189    |
 |    46    0.00000   0.25000   0.75000   |    1.61942   1.21457   0.12189    |
 |    47    0.00000   0.25000   0.83333   |    1.75438   1.34952   0.12189    |
 |    48    0.00000   0.25000   0.91667   |    1.88933   1.48447   0.12189    |
 |    49    0.00000   0.33333   0.00000   |    0.53981   0.00000   0.16252    |
 |    50    0.00000   0.33333   0.08333   |    0.67476   0.13495   0.16252    |
 |    51    0.00000   0.33333   0.16667   |    0.80971   0.26990   0.16252    |
 |    52    0.00000   0.33333   0.25000   |    0.94466   0.40486   0.16252    |
 |    53    0.00000   0.33333   0.33333   |    1.07962   0.53981   0.16252    |
 |    54    0.00000   0.33333   0.41667   |    1.21457   0.67476   0.16252    |
 |    55    0.00000   0.33333   0.50000   |    1.34952   0.80971   0.16252    |
 |    56    0.00000   0.33333   0.58333   |    1.48447   0.94466   0.16252    |
 |    57    0.00000   0.33333   0.66667   |    1.61942   1.07962   0.16252    |
 |    58    0.00000   0.33333   0.75000   |    1.75438   1.21457   0.16252    |
 |    59    0.00000   0.33333   0.83333   |    1.88933   1.34952   0.16252    |
 |    60    0.00000   0.33333   0.91667   |    2.02428   1.48447   0.16252    |
 |    61    0.00000   0.41667   0.00000   |    0.67476   0.00000   0.20315    |
 |    62    0.00000   0.41667   0.08333   |    0.80971   0.13495   0.20315    |
 |    63    0.00000   0.41667   0.16667   |    0.94466   0.26990   0.20315    |
 |    64    0.00000   0.41667   0.25000   |    1.07962   0.40486   0.20315    |
 |    65    0.00000   0.41667   0.33333   |    1.21457   0.53981   0.20315    |
 |    66    0.00000   0.41667   0.41667   |    1.34952   0.67476   0.20315    |
 |    67    0.00000   0.41667   0.50000   |    1.48447   0.80971   0.20315    |
 |    68    0.00000   0.41667   0.58333   |    1.61942   0.94466   0.20315    |
 |    69    0.00000   0.41667   0.66667   |    1.75438   1.07962   0.20315    |
 |    70    0.00000   0.41667   0.75000   |    1.88933   1.21457   0.20315    |
 |    71    0.00000   0.41667   0.83333   |    2.02428   1.34952   0.20315    |
 |    72    0.00000   0.41667   0.91667   |    2.15923   1.48447   0.20315    |
 |    73    0.00000   0.50000   0.00000   |    0.80971   0.00000   0.24377    |
 |    74    0.00000   0.50000   0.08333   |    0.94466   0.13495   0.24377    |
 |    75    0.00000   0.50000   0.16667   |    1.07962   0.26990   0.24377    |
 |    76    0.00000   0.50000   0.25000   |    1.21457   0.40486   0.24377    |
 |    77    0.00000   0.50000   0.33333   |    1.34952   0.53981   0.24377    |
 |    78    0.00000   0.50000   0.41667   |    1.48447   0.67476   0.24377    |
 |    79    0.00000   0.50000   0.50000   |    1.61942   0.80971   0.24377    |
 |    80    0.00000   0.50000   0.58333   |    1.75438   0.94466   0.24377    |
 |    81    0.00000   0.50000   0.66667   |    1.88933   1.07962   0.24377    |
 |    82    0.00000   0.50000   0.75000   |    2.02428   1.21457   0.24377    |
 |    83    0.00000   0.50000   0.83333   |    2.15923   1.34952   0.24377    |
 |    84    0.00000   0.50000   0.91667   |    2.29418   1.48447   0.24377    |
 |    85    0.00000   0.58333   0.00000   |    0.94466   0.00000   0.28440    |
 |    86    0.00000   0.58333   0.08333   |    1.07962   0.13495   0.28440    |
 |    87    0.00000   0.58333   0.16667   |    1.21457   0.26990   0.28440    |
 |    88    0.00000   0.58333   0.25000   |    1.34952   0.40486   0.28440    |
 |    89    0.00000   0.58333   0.33333   |    1.48447   0.53981   0.28440    |
 |    90    0.00000   0.58333   0.41667   |    1.61942   0.67476   0.28440    |
 |    91    0.00000   0.58333   0.50000   |    1.75438   0.80971   0.28440    |
 |    92    0.00000   0.58333   0.58333   |    1.88933   0.94466   0.28440    |
 |    93    0.00000   0.58333   0.66667   |    2.02428   1.07962   0.28440    |
 |    94    0.00000   0.58333   0.75000   |    2.15923   1.21457   0.28440    |
 |    95    0.00000   0.58333   0.83333   |    2.29418   1.34952   0.28440    |
 |    96    0.00000   0.58333   0.91667   |    2.42914   1.48447   0.28440    |
 |    97    0.00000   0.66667   0.00000   |    1.07962   0.00000   0.32503    |
 |    98    0.00000   0.66667   0.08333   |    1.21457   0.13495   0.32503    |
 |    99    0.00000   0.66667   0.16667   |    1.34952   0.26990   0.32503    |
 |   100    0.00000   0.66667   0.25000   |    1.48447   0.40486   0.32503    |
 |   101    0.00000   0.66667   0.33333   |    1.61942   0.53981   0.32503    |
 |   102    0.00000   0.66667   0.41667   |    1.75438   0.67476   0.32503    |
 |   103    0.00000   0.66667   0.50000   |    1.88933   0.80971   0.32503    |
 |   104    0.00000   0.66667   0.58333   |    2.02428   0.94466   0.32503    |
 |   105    0.00000   0.66667   0.66667   |    2.15923   1.07962   0.32503    |
 |   106    0.00000   0.66667   0.75000   |    2.29418   1.21457   0.32503    |
 |   107    0.00000   0.66667   0.83333   |    2.42914   1.34952   0.32503    |
 |   108    0.00000   0.66667   0.91667   |    2.56409   1.48447   0.32503    |
 |   109    0.00000   0.75000   0.00000   |    1.21457   0.00000   0.36566    |
 |   110    0.00000   0.75000   0.08333   |    1.34952   0.13495   0.36566    |
 |   111    0.00000   0.75000   0.16667   |    1.48447   0.26990   0.36566    |
 |   112    0.00000   0.75000   0.25000   |    1.61942   0.40486   0.36566    |
 |   113    0.00000   0.75000   0.33333   |    1.75438   0.53981   0.36566    |
 |   114    0.00000   0.75000   0.41667   |    1.88933   0.67476   0.36566    |
 |   115    0.00000   0.75000   0.50000   |    2.02428   0.80971   0.36566    |
 |   116    0.00000   0.75000   0.58333   |    2.15923   0.94466   0.36566    |
 |   117    0.00000   0.75000   0.66667   |    2.29418   1.07962   0.36566    |
 |   118    0.00000   0.75000   0.75000   |    2.42914   1.21457   0.36566    |
 |   119    0.00000   0.75000   0.83333   |    2.56409   1.34952   0.36566    |
 |   120    0.00000   0.75000   0.91667   |    2.69904   1.48447   0.36566    |
 |   121    0.00000   0.83333   0.00000   |    1.34952   0.00000   0.40629    |
 |   122    0.00000   0.83333   0.08333   |    1.48447   0.13495   0.40629    |
 |   123    0.00000   0.83333   0.16667   |    1.61942   0.26990   0.40629    |
 |   124    0.00000   0.83333   0.25000   |    1.75438   0.40486   0.40629    |
 |   125    0.00000   0.83333   0.33333   |    1.88933   0.53981   0.40629    |
 |   126    0.00000   0.83333   0.41667   |    2.02428   0.67476   0.40629    |
 |   127    0.00000   0.83333   0.50000   |    2.15923   0.80971   0.40629    |
 |   128    0.00000   0.83333   0.58333   |    2.29418   0.94466   0.40629    |
 |   129    0.00000   0.83333   0.66667   |    2.42914   1.07962   0.40629    |
 |   130    0.00000   0.83333   0.75000   |    2.56409   1.21457   0.40629    |
 |   131    0.00000   0.83333   0.83333   |    2.69904   1.34952   0.40629    |
 |   132    0.00000   0.83333   0.91667   |    2.83399   1.48447   0.40629    |
 |   133    0.00000   0.91667   0.00000   |    1.48447   0.00000   0.44692    |
 |   134    0.00000   0.91667   0.08333   |    1.61942   0.13495   0.44692    |
 |   135    0.00000   0.91667   0.16667   |    1.75438   0.26990   0.44692    |
 |   136    0.00000   0.91667   0.25000   |    1.88933   0.40486   0.44692    |
 |   137    0.00000   0.91667   0.33333   |    2.02428   0.53981   0.44692    |
 |   138    0.00000   0.91667   0.41667   |    2.15923   0.67476   0.44692    |
 |   139    0.00000   0.91667   0.50000   |    2.29418   0.80971   0.44692    |
 |   140    0.00000   0.91667   0.58333   |    2.42914   0.94466   0.44692    |
 |   141    0.00000   0.91667   0.66667   |    2.56409   1.07962   0.44692    |
 |   142    0.00000   0.91667   0.75000   |    2.69904   1.21457   0.44692    |
 |   143    0.00000   0.91667   0.83333   |    2.83399   1.34952   0.44692    |
 |   144    0.00000   0.91667   0.91667   |    2.96894   1.48447   0.44692    |
 |   145    0.08333   0.00000   0.00000   |    0.00000   0.13495   0.04063    |
 |   146    0.08333   0.00000   0.08333   |    0.13495   0.26990   0.04063    |
 |   147    0.08333   0.00000   0.16667   |    0.26990   0.40486   0.04063    |
 |   148    0.08333   0.00000   0.25000   |    0.40486   0.53981   0.04063    |
 |   149    0.08333   0.00000   0.33333   |    0.53981   0.67476   0.04063    |
 |   150    0.08333   0.00000   0.41667   |    0.67476   0.80971   0.04063    |
 |   151    0.08333   0.00000   0.50000   |    0.80971   0.94466   0.04063    |
 |   152    0.08333   0.00000   0.58333   |    0.94466   1.07962   0.04063    |
 |   153    0.08333   0.00000   0.66667   |    1.07962   1.21457   0.04063    |
 |   154    0.08333   0.00000   0.75000   |    1.21457   1.34952   0.04063    |
 |   155    0.08333   0.00000   0.83333   |    1.34952   1.48447   0.04063    |
 |   156    0.08333   0.00000   0.91667   |    1.48447   1.61942   0.04063    |
 |   157    0.08333   0.08333   0.00000   |    0.13495   0.13495   0.08126    |
 |   158    0.08333   0.08333   0.08333   |    0.26990   0.26990   0.08126    |
 |   159    0.08333   0.08333   0.16667   |    0.40486   0.40486   0.08126    |
 |   160    0.08333   0.08333   0.25000   |    0.53981   0.53981   0.08126    |
 |   161    0.08333   0.08333   0.33333   |    0.67476   0.67476   0.08126    |
 |   162    0.08333   0.08333   0.41667   |    0.80971   0.80971   0.08126    |
 |   163    0.08333   0.08333   0.50000   |    0.94466   0.94466   0.08126    |
 |   164    0.08333   0.08333   0.58333   |    1.07962   1.07962   0.08126    |
 |   165    0.08333   0.08333   0.66667   |    1.21457   1.21457   0.08126    |
 |   166    0.08333   0.08333   0.75000   |    1.34952   1.34952   0.08126    |
 |   167    0.08333   0.08333   0.83333   |    1.48447   1.48447   0.08126    |
 |   168    0.08333   0.08333   0.91667   |    1.61942   1.61942   0.08126    |
 |   169    0.08333   0.16667   0.00000   |    0.26990   0.13495   0.12189    |
 |   170    0.08333   0.16667   0.08333   |    0.40486   0.26990   0.12189    |
 |   171    0.08333   0.16667   0.16667   |    0.53981   0.40486   0.12189    |
 |   172    0.08333   0.16667   0.25000   |    0.67476   0.53981   0.12189    |
 |   173    0.08333   0.16667   0.33333   |    0.80971   0.67476   0.12189    |
 |   174    0.08333   0.16667   0.41667   |    0.94466   0.80971   0.12189    |
 |   175    0.08333   0.16667   0.50000   |    1.07962   0.94466   0.12189    |
 |   176    0.08333   0.16667   0.58333   |    1.21457   1.07962   0.12189    |
 |   177    0.08333   0.16667   0.66667   |    1.34952   1.21457   0.12189    |
 |   178    0.08333   0.16667   0.75000   |    1.48447   1.34952   0.12189    |
 |   179    0.08333   0.16667   0.83333   |    1.61942   1.48447   0.12189    |
 |   180    0.08333   0.16667   0.91667   |    1.75438   1.61942   0.12189    |
 |   181    0.08333   0.25000   0.00000   |    0.40486   0.13495   0.16252    |
 |   182    0.08333   0.25000   0.08333   |    0.53981   0.26990   0.16252    |
 |   183    0.08333   0.25000   0.16667   |    0.67476   0.40486   0.16252    |
 |   184    0.08333   0.25000   0.25000   |    0.80971   0.53981   0.16252    |
 |   185    0.08333   0.25000   0.33333   |    0.94466   0.67476   0.16252    |
 |   186    0.08333   0.25000   0.41667   |    1.07962   0.80971   0.16252    |
 |   187    0.08333   0.25000   0.50000   |    1.21457   0.94466   0.16252    |
 |   188    0.08333   0.25000   0.58333   |    1.34952   1.07962   0.16252    |
 |   189    0.08333   0.25000   0.66667   |    1.48447   1.21457   0.16252    |
 |   190    0.08333   0.25000   0.75000   |    1.61942   1.34952   0.16252    |
 |   191    0.08333   0.25000   0.83333   |    1.75438   1.48447   0.16252    |
 |   192    0.08333   0.25000   0.91667   |    1.88933   1.61942   0.16252    |
 |   193    0.08333   0.33333   0.00000   |    0.53981   0.13495   0.20315    |
 |   194    0.08333   0.33333   0.08333   |    0.67476   0.26990   0.20315    |
 |   195    0.08333   0.33333   0.16667   |    0.80971   0.40486   0.20315    |
 |   196    0.08333   0.33333   0.25000   |    0.94466   0.53981   0.20315    |
 |   197    0.08333   0.33333   0.33333   |    1.07962   0.67476   0.20315    |
 |   198    0.08333   0.33333   0.41667   |    1.21457   0.80971   0.20315    |
 |   199    0.08333   0.33333   0.50000   |    1.34952   0.94466   0.20315    |
 |   200    0.08333   0.33333   0.58333   |    1.48447   1.07962   0.20315    |
 |   201    0.08333   0.33333   0.66667   |    1.61942   1.21457   0.20315    |
 |   202    0.08333   0.33333   0.75000   |    1.75438   1.34952   0.20315    |
 |   203    0.08333   0.33333   0.83333   |    1.88933   1.48447   0.20315    |
 |   204    0.08333   0.33333   0.91667   |    2.02428   1.61942   0.20315    |
 |   205    0.08333   0.41667   0.00000   |    0.67476   0.13495   0.24377    |
 |   206    0.08333   0.41667   0.08333   |    0.80971   0.26990   0.24377    |
 |   207    0.08333   0.41667   0.16667   |    0.94466   0.40486   0.24377    |
 |   208    0.08333   0.41667   0.25000   |    1.07962   0.53981   0.24377    |
 |   209    0.08333   0.41667   0.33333   |    1.21457   0.67476   0.24377    |
 |   210    0.08333   0.41667   0.41667   |    1.34952   0.80971   0.24377    |
 |   211    0.08333   0.41667   0.50000   |    1.48447   0.94466   0.24377    |
 |   212    0.08333   0.41667   0.58333   |    1.61942   1.07962   0.24377    |
 |   213    0.08333   0.41667   0.66667   |    1.75438   1.21457   0.24377    |
 |   214    0.08333   0.41667   0.75000   |    1.88933   1.34952   0.24377    |
 |   215    0.08333   0.41667   0.83333   |    2.02428   1.48447   0.24377    |
 |   216    0.08333   0.41667   0.91667   |    2.15923   1.61942   0.24377    |
 |   217    0.08333   0.50000   0.00000   |    0.80971   0.13495   0.28440    |
 |   218    0.08333   0.50000   0.08333   |    0.94466   0.26990   0.28440    |
 |   219    0.08333   0.50000   0.16667   |    1.07962   0.40486   0.28440    |
 |   220    0.08333   0.50000   0.25000   |    1.21457   0.53981   0.28440    |
 |   221    0.08333   0.50000   0.33333   |    1.34952   0.67476   0.28440    |
 |   222    0.08333   0.50000   0.41667   |    1.48447   0.80971   0.28440    |
 |   223    0.08333   0.50000   0.50000   |    1.61942   0.94466   0.28440    |
 |   224    0.08333   0.50000   0.58333   |    1.75438   1.07962   0.28440    |
 |   225    0.08333   0.50000   0.66667   |    1.88933   1.21457   0.28440    |
 |   226    0.08333   0.50000   0.75000   |    2.02428   1.34952   0.28440    |
 |   227    0.08333   0.50000   0.83333   |    2.15923   1.48447   0.28440    |
 |   228    0.08333   0.50000   0.91667   |    2.29418   1.61942   0.28440    |
 |   229    0.08333   0.58333   0.00000   |    0.94466   0.13495   0.32503    |
 |   230    0.08333   0.58333   0.08333   |    1.07962   0.26990   0.32503    |
 |   231    0.08333   0.58333   0.16667   |    1.21457   0.40486   0.32503    |
 |   232    0.08333   0.58333   0.25000   |    1.34952   0.53981   0.32503    |
 |   233    0.08333   0.58333   0.33333   |    1.48447   0.67476   0.32503    |
 |   234    0.08333   0.58333   0.41667   |    1.61942   0.80971   0.32503    |
 |   235    0.08333   0.58333   0.50000   |    1.75438   0.94466   0.32503    |
 |   236    0.08333   0.58333   0.58333   |    1.88933   1.07962   0.32503    |
 |   237    0.08333   0.58333   0.66667   |    2.02428   1.21457   0.32503    |
 |   238    0.08333   0.58333   0.75000   |    2.15923   1.34952   0.32503    |
 |   239    0.08333   0.58333   0.83333   |    2.29418   1.48447   0.32503    |
 |   240    0.08333   0.58333   0.91667   |    2.42914   1.61942   0.32503    |
 |   241    0.08333   0.66667   0.00000   |    1.07962   0.13495   0.36566    |
 |   242    0.08333   0.66667   0.08333   |    1.21457   0.26990   0.36566    |
 |   243    0.08333   0.66667   0.16667   |    1.34952   0.40486   0.36566    |
 |   244    0.08333   0.66667   0.25000   |    1.48447   0.53981   0.36566    |
 |   245    0.08333   0.66667   0.33333   |    1.61942   0.67476   0.36566    |
 |   246    0.08333   0.66667   0.41667   |    1.75438   0.80971   0.36566    |
 |   247    0.08333   0.66667   0.50000   |    1.88933   0.94466   0.36566    |
 |   248    0.08333   0.66667   0.58333   |    2.02428   1.07962   0.36566    |
 |   249    0.08333   0.66667   0.66667   |    2.15923   1.21457   0.36566    |
 |   250    0.08333   0.66667   0.75000   |    2.29418   1.34952   0.36566    |
 |   251    0.08333   0.66667   0.83333   |    2.42914   1.48447   0.36566    |
 |   252    0.08333   0.66667   0.91667   |    2.56409   1.61942   0.36566    |
 |   253    0.08333   0.75000   0.00000   |    1.21457   0.13495   0.40629    |
 |   254    0.08333   0.75000   0.08333   |    1.34952   0.26990   0.40629    |
 |   255    0.08333   0.75000   0.16667   |    1.48447   0.40486   0.40629    |
 |   256    0.08333   0.75000   0.25000   |    1.61942   0.53981   0.40629    |
 |   257    0.08333   0.75000   0.33333   |    1.75438   0.67476   0.40629    |
 |   258    0.08333   0.75000   0.41667   |    1.88933   0.80971   0.40629    |
 |   259    0.08333   0.75000   0.50000   |    2.02428   0.94466   0.40629    |
 |   260    0.08333   0.75000   0.58333   |    2.15923   1.07962   0.40629    |
 |   261    0.08333   0.75000   0.66667   |    2.29418   1.21457   0.40629    |
 |   262    0.08333   0.75000   0.75000   |    2.42914   1.34952   0.40629    |
 |   263    0.08333   0.75000   0.83333   |    2.56409   1.48447   0.40629    |
 |   264    0.08333   0.75000   0.91667   |    2.69904   1.61942   0.40629    |
 |   265    0.08333   0.83333   0.00000   |    1.34952   0.13495   0.44692    |
 |   266    0.08333   0.83333   0.08333   |    1.48447   0.26990   0.44692    |
 |   267    0.08333   0.83333   0.16667   |    1.61942   0.40486   0.44692    |
 |   268    0.08333   0.83333   0.25000   |    1.75438   0.53981   0.44692    |
 |   269    0.08333   0.83333   0.33333   |    1.88933   0.67476   0.44692    |
 |   270    0.08333   0.83333   0.41667   |    2.02428   0.80971   0.44692    |
 |   271    0.08333   0.83333   0.50000   |    2.15923   0.94466   0.44692    |
 |   272    0.08333   0.83333   0.58333   |    2.29418   1.07962   0.44692    |
 |   273    0.08333   0.83333   0.66667   |    2.42914   1.21457   0.44692    |
 |   274    0.08333   0.83333   0.75000   |    2.56409   1.34952   0.44692    |
 |   275    0.08333   0.83333   0.83333   |    2.69904   1.48447   0.44692    |
 |   276    0.08333   0.83333   0.91667   |    2.83399   1.61942   0.44692    |
 |   277    0.08333   0.91667   0.00000   |    1.48447   0.13495   0.48755    |
 |   278    0.08333   0.91667   0.08333   |    1.61942   0.26990   0.48755    |
 |   279    0.08333   0.91667   0.16667   |    1.75438   0.40486   0.48755    |
 |   280    0.08333   0.91667   0.25000   |    1.88933   0.53981   0.48755    |
 |   281    0.08333   0.91667   0.33333   |    2.02428   0.67476   0.48755    |
 |   282    0.08333   0.91667   0.41667   |    2.15923   0.80971   0.48755    |
 |   283    0.08333   0.91667   0.50000   |    2.29418   0.94466   0.48755    |
 |   284    0.08333   0.91667   0.58333   |    2.42914   1.07962   0.48755    |
 |   285    0.08333   0.91667   0.66667   |    2.56409   1.21457   0.48755    |
 |   286    0.08333   0.91667   0.75000   |    2.69904   1.34952   0.48755    |
 |   287    0.08333   0.91667   0.83333   |    2.83399   1.48447   0.48755    |
 |   288    0.08333   0.91667   0.91667   |    2.96894   1.61942   0.48755    |
 |   289    0.16667   0.00000   0.00000   |    0.00000   0.26990   0.08126    |
 |   290    0.16667   0.00000   0.08333   |    0.13495   0.40486   0.08126    |
 |   291    0.16667   0.00000   0.16667   |    0.26990   0.53981   0.08126    |
 |   292    0.16667   0.00000   0.25000   |    0.40486   0.67476   0.08126    |
 |   293    0.16667   0.00000   0.33333   |    0.53981   0.80971   0.08126    |
 |   294    0.16667   0.00000   0.41667   |    0.67476   0.94466   0.08126    |
 |   295    0.16667   0.00000   0.50000   |    0.80971   1.07962   0.08126    |
 |   296    0.16667   0.00000   0.58333   |    0.94466   1.21457   0.08126    |
 |   297    0.16667   0.00000   0.66667   |    1.07962   1.34952   0.08126    |
 |   298    0.16667   0.00000   0.75000   |    1.21457   1.48447   0.08126    |
 |   299    0.16667   0.00000   0.83333   |    1.34952   1.61942   0.08126    |
 |   300    0.16667   0.00000   0.91667   |    1.48447   1.75438   0.08126    |
 |   301    0.16667   0.08333   0.00000   |    0.13495   0.26990   0.12189    |
 |   302    0.16667   0.08333   0.08333   |    0.26990   0.40486   0.12189    |
 |   303    0.16667   0.08333   0.16667   |    0.40486   0.53981   0.12189    |
 |   304    0.16667   0.08333   0.25000   |    0.53981   0.67476   0.12189    |
 |   305    0.16667   0.08333   0.33333   |    0.67476   0.80971   0.12189    |
 |   306    0.16667   0.08333   0.41667   |    0.80971   0.94466   0.12189    |
 |   307    0.16667   0.08333   0.50000   |    0.94466   1.07962   0.12189    |
 |   308    0.16667   0.08333   0.58333   |    1.07962   1.21457   0.12189    |
 |   309    0.16667   0.08333   0.66667   |    1.21457   1.34952   0.12189    |
 |   310    0.16667   0.08333   0.75000   |    1.34952   1.48447   0.12189    |
 |   311    0.16667   0.08333   0.83333   |    1.48447   1.61942   0.12189    |
 |   312    0.16667   0.08333   0.91667   |    1.61942   1.75438   0.12189    |
 |   313    0.16667   0.16667   0.00000   |    0.26990   0.26990   0.16252    |
 |   314    0.16667   0.16667   0.08333   |    0.40486   0.40486   0.16252    |
 |   315    0.16667   0.16667   0.16667   |    0.53981   0.53981   0.16252    |
 |   316    0.16667   0.16667   0.25000   |    0.67476   0.67476   0.16252    |
 |   317    0.16667   0.16667   0.33333   |    0.80971   0.80971   0.16252    |
 |   318    0.16667   0.16667   0.41667   |    0.94466   0.94466   0.16252    |
 |   319    0.16667   0.16667   0.50000   |    1.07962   1.07962   0.16252    |
 |   320    0.16667   0.16667   0.58333   |    1.21457   1.21457   0.16252    |
 |   321    0.16667   0.16667   0.66667   |    1.34952   1.34952   0.16252    |
 |   322    0.16667   0.16667   0.75000   |    1.48447   1.48447   0.16252    |
 |   323    0.16667   0.16667   0.83333   |    1.61942   1.61942   0.16252    |
 |   324    0.16667   0.16667   0.91667   |    1.75438   1.75438   0.16252    |
 |   325    0.16667   0.25000   0.00000   |    0.40486   0.26990   0.20315    |
 |   326    0.16667   0.25000   0.08333   |    0.53981   0.40486   0.20315    |
 |   327    0.16667   0.25000   0.16667   |    0.67476   0.53981   0.20315    |
 |   328    0.16667   0.25000   0.25000   |    0.80971   0.67476   0.20315    |
 |   329    0.16667   0.25000   0.33333   |    0.94466   0.80971   0.20315    |
 |   330    0.16667   0.25000   0.41667   |    1.07962   0.94466   0.20315    |
 |   331    0.16667   0.25000   0.50000   |    1.21457   1.07962   0.20315    |
 |   332    0.16667   0.25000   0.58333   |    1.34952   1.21457   0.20315    |
 |   333    0.16667   0.25000   0.66667   |    1.48447   1.34952   0.20315    |
 |   334    0.16667   0.25000   0.75000   |    1.61942   1.48447   0.20315    |
 |   335    0.16667   0.25000   0.83333   |    1.75438   1.61942   0.20315    |
 |   336    0.16667   0.25000   0.91667   |    1.88933   1.75438   0.20315    |
 |   337    0.16667   0.33333   0.00000   |    0.53981   0.26990   0.24377    |
 |   338    0.16667   0.33333   0.08333   |    0.67476   0.40486   0.24377    |
 |   339    0.16667   0.33333   0.16667   |    0.80971   0.53981   0.24377    |
 |   340    0.16667   0.33333   0.25000   |    0.94466   0.67476   0.24377    |
 |   341    0.16667   0.33333   0.33333   |    1.07962   0.80971   0.24377    |
 |   342    0.16667   0.33333   0.41667   |    1.21457   0.94466   0.24377    |
 |   343    0.16667   0.33333   0.50000   |    1.34952   1.07962   0.24377    |
 |   344    0.16667   0.33333   0.58333   |    1.48447   1.21457   0.24377    |
 |   345    0.16667   0.33333   0.66667   |    1.61942   1.34952   0.24377    |
 |   346    0.16667   0.33333   0.75000   |    1.75438   1.48447   0.24377    |
 |   347    0.16667   0.33333   0.83333   |    1.88933   1.61942   0.24377    |
 |   348    0.16667   0.33333   0.91667   |    2.02428   1.75438   0.24377    |
 |   349    0.16667   0.41667   0.00000   |    0.67476   0.26990   0.28440    |
 |   350    0.16667   0.41667   0.08333   |    0.80971   0.40486   0.28440    |
 |   351    0.16667   0.41667   0.16667   |    0.94466   0.53981   0.28440    |
 |   352    0.16667   0.41667   0.25000   |    1.07962   0.67476   0.28440    |
 |   353    0.16667   0.41667   0.33333   |    1.21457   0.80971   0.28440    |
 |   354    0.16667   0.41667   0.41667   |    1.34952   0.94466   0.28440    |
 |   355    0.16667   0.41667   0.50000   |    1.48447   1.07962   0.28440    |
 |   356    0.16667   0.41667   0.58333   |    1.61942   1.21457   0.28440    |
 |   357    0.16667   0.41667   0.66667   |    1.75438   1.34952   0.28440    |
 |   358    0.16667   0.41667   0.75000   |    1.88933   1.48447   0.28440    |
 |   359    0.16667   0.41667   0.83333   |    2.02428   1.61942   0.28440    |
 |   360    0.16667   0.41667   0.91667   |    2.15923   1.75438   0.28440    |
 |   361    0.16667   0.50000   0.00000   |    0.80971   0.26990   0.32503    |
 |   362    0.16667   0.50000   0.08333   |    0.94466   0.40486   0.32503    |
 |   363    0.16667   0.50000   0.16667   |    1.07962   0.53981   0.32503    |
 |   364    0.16667   0.50000   0.25000   |    1.21457   0.67476   0.32503    |
 |   365    0.16667   0.50000   0.33333   |    1.34952   0.80971   0.32503    |
 |   366    0.16667   0.50000   0.41667   |    1.48447   0.94466   0.32503    |
 |   367    0.16667   0.50000   0.50000   |    1.61942   1.07962   0.32503    |
 |   368    0.16667   0.50000   0.58333   |    1.75438   1.21457   0.32503    |
 |   369    0.16667   0.50000   0.66667   |    1.88933   1.34952   0.32503    |
 |   370    0.16667   0.50000   0.75000   |    2.02428   1.48447   0.32503    |
 |   371    0.16667   0.50000   0.83333   |    2.15923   1.61942   0.32503    |
 |   372    0.16667   0.50000   0.91667   |    2.29418   1.75438   0.32503    |
 |   373    0.16667   0.58333   0.00000   |    0.94466   0.26990   0.36566    |
 |   374    0.16667   0.58333   0.08333   |    1.07962   0.40486   0.36566    |
 |   375    0.16667   0.58333   0.16667   |    1.21457   0.53981   0.36566    |
 |   376    0.16667   0.58333   0.25000   |    1.34952   0.67476   0.36566    |
 |   377    0.16667   0.58333   0.33333   |    1.48447   0.80971   0.36566    |
 |   378    0.16667   0.58333   0.41667   |    1.61942   0.94466   0.36566    |
 |   379    0.16667   0.58333   0.50000   |    1.75438   1.07962   0.36566    |
 |   380    0.16667   0.58333   0.58333   |    1.88933   1.21457   0.36566    |
 |   381    0.16667   0.58333   0.66667   |    2.02428   1.34952   0.36566    |
 |   382    0.16667   0.58333   0.75000   |    2.15923   1.48447   0.36566    |
 |   383    0.16667   0.58333   0.83333   |    2.29418   1.61942   0.36566    |
 |   384    0.16667   0.58333   0.91667   |    2.42914   1.75438   0.36566    |
 |   385    0.16667   0.66667   0.00000   |    1.07962   0.26990   0.40629    |
 |   386    0.16667   0.66667   0.08333   |    1.21457   0.40486   0.40629    |
 |   387    0.16667   0.66667   0.16667   |    1.34952   0.53981   0.40629    |
 |   388    0.16667   0.66667   0.25000   |    1.48447   0.67476   0.40629    |
 |   389    0.16667   0.66667   0.33333   |    1.61942   0.80971   0.40629    |
 |   390    0.16667   0.66667   0.41667   |    1.75438   0.94466   0.40629    |
 |   391    0.16667   0.66667   0.50000   |    1.88933   1.07962   0.40629    |
 |   392    0.16667   0.66667   0.58333   |    2.02428   1.21457   0.40629    |
 |   393    0.16667   0.66667   0.66667   |    2.15923   1.34952   0.40629    |
 |   394    0.16667   0.66667   0.75000   |    2.29418   1.48447   0.40629    |
 |   395    0.16667   0.66667   0.83333   |    2.42914   1.61942   0.40629    |
 |   396    0.16667   0.66667   0.91667   |    2.56409   1.75438   0.40629    |
 |   397    0.16667   0.75000   0.00000   |    1.21457   0.26990   0.44692    |
 |   398    0.16667   0.75000   0.08333   |    1.34952   0.40486   0.44692    |
 |   399    0.16667   0.75000   0.16667   |    1.48447   0.53981   0.44692    |
 |   400    0.16667   0.75000   0.25000   |    1.61942   0.67476   0.44692    |
 |   401    0.16667   0.75000   0.33333   |    1.75438   0.80971   0.44692    |
 |   402    0.16667   0.75000   0.41667   |    1.88933   0.94466   0.44692    |
 |   403    0.16667   0.75000   0.50000   |    2.02428   1.07962   0.44692    |
 |   404    0.16667   0.75000   0.58333   |    2.15923   1.21457   0.44692    |
 |   405    0.16667   0.75000   0.66667   |    2.29418   1.34952   0.44692    |
 |   406    0.16667   0.75000   0.75000   |    2.42914   1.48447   0.44692    |
 |   407    0.16667   0.75000   0.83333   |    2.56409   1.61942   0.44692    |
 |   408    0.16667   0.75000   0.91667   |    2.69904   1.75438   0.44692    |
 |   409    0.16667   0.83333   0.00000   |    1.34952   0.26990   0.48755    |
 |   410    0.16667   0.83333   0.08333   |    1.48447   0.40486   0.48755    |
 |   411    0.16667   0.83333   0.16667   |    1.61942   0.53981   0.48755    |
 |   412    0.16667   0.83333   0.25000   |    1.75438   0.67476   0.48755    |
 |   413    0.16667   0.83333   0.33333   |    1.88933   0.80971   0.48755    |
 |   414    0.16667   0.83333   0.41667   |    2.02428   0.94466   0.48755    |
 |   415    0.16667   0.83333   0.50000   |    2.15923   1.07962   0.48755    |
 |   416    0.16667   0.83333   0.58333   |    2.29418   1.21457   0.48755    |
 |   417    0.16667   0.83333   0.66667   |    2.42914   1.34952   0.48755    |
 |   418    0.16667   0.83333   0.75000   |    2.56409   1.48447   0.48755    |
 |   419    0.16667   0.83333   0.83333   |    2.69904   1.61942   0.48755    |
 |   420    0.16667   0.83333   0.91667   |    2.83399   1.75438   0.48755    |
 |   421    0.16667   0.91667   0.00000   |    1.48447   0.26990   0.52818    |
 |   422    0.16667   0.91667   0.08333   |    1.61942   0.40486   0.52818    |
 |   423    0.16667   0.91667   0.16667   |    1.75438   0.53981   0.52818    |
 |   424    0.16667   0.91667   0.25000   |    1.88933   0.67476   0.52818    |
 |   425    0.16667   0.91667   0.33333   |    2.02428   0.80971   0.52818    |
 |   426    0.16667   0.91667   0.41667   |    2.15923   0.94466   0.52818    |
 |   427    0.16667   0.91667   0.50000   |    2.29418   1.07962   0.52818    |
 |   428    0.16667   0.91667   0.58333   |    2.42914   1.21457   0.52818    |
 |   429    0.16667   0.91667   0.66667   |    2.56409   1.34952   0.52818    |
 |   430    0.16667   0.91667   0.75000   |    2.69904   1.48447   0.52818    |
 |   431    0.16667   0.91667   0.83333   |    2.83399   1.61942   0.52818    |
 |   432    0.16667   0.91667   0.91667   |    2.96894   1.75438   0.52818    |
 |   433    0.25000   0.00000   0.00000   |    0.00000   0.40486   0.12189    |
 |   434    0.25000   0.00000   0.08333   |    0.13495   0.53981   0.12189    |
 |   435    0.25000   0.00000   0.16667   |    0.26990   0.67476   0.12189    |
 |   436    0.25000   0.00000   0.25000   |    0.40486   0.80971   0.12189    |
 |   437    0.25000   0.00000   0.33333   |    0.53981   0.94466   0.12189    |
 |   438    0.25000   0.00000   0.41667   |    0.67476   1.07962   0.12189    |
 |   439    0.25000   0.00000   0.50000   |    0.80971   1.21457   0.12189    |
 |   440    0.25000   0.00000   0.58333   |    0.94466   1.34952   0.12189    |
 |   441    0.25000   0.00000   0.66667   |    1.07962   1.48447   0.12189    |
 |   442    0.25000   0.00000   0.75000   |    1.21457   1.61942   0.12189    |
 |   443    0.25000   0.00000   0.83333   |    1.34952   1.75438   0.12189    |
 |   444    0.25000   0.00000   0.91667   |    1.48447   1.88933   0.12189    |
 |   445    0.25000   0.08333   0.00000   |    0.13495   0.40486   0.16252    |
 |   446    0.25000   0.08333   0.08333   |    0.26990   0.53981   0.16252    |
 |   447    0.25000   0.08333   0.16667   |    0.40486   0.67476   0.16252    |
 |   448    0.25000   0.08333   0.25000   |    0.53981   0.80971   0.16252    |
 |   449    0.25000   0.08333   0.33333   |    0.67476   0.94466   0.16252    |
 |   450    0.25000   0.08333   0.41667   |    0.80971   1.07962   0.16252    |
 |   451    0.25000   0.08333   0.50000   |    0.94466   1.21457   0.16252    |
 |   452    0.25000   0.08333   0.58333   |    1.07962   1.34952   0.16252    |
 |   453    0.25000   0.08333   0.66667   |    1.21457   1.48447   0.16252    |
 |   454    0.25000   0.08333   0.75000   |    1.34952   1.61942   0.16252    |
 |   455    0.25000   0.08333   0.83333   |    1.48447   1.75438   0.16252    |
 |   456    0.25000   0.08333   0.91667   |    1.61942   1.88933   0.16252    |
 |   457    0.25000   0.16667   0.00000   |    0.26990   0.40486   0.20315    |
 |   458    0.25000   0.16667   0.08333   |    0.40486   0.53981   0.20315    |
 |   459    0.25000   0.16667   0.16667   |    0.53981   0.67476   0.20315    |
 |   460    0.25000   0.16667   0.25000   |    0.67476   0.80971   0.20315    |
 |   461    0.25000   0.16667   0.33333   |    0.80971   0.94466   0.20315    |
 |   462    0.25000   0.16667   0.41667   |    0.94466   1.07962   0.20315    |
 |   463    0.25000   0.16667   0.50000   |    1.07962   1.21457   0.20315    |
 |   464    0.25000   0.16667   0.58333   |    1.21457   1.34952   0.20315    |
 |   465    0.25000   0.16667   0.66667   |    1.34952   1.48447   0.20315    |
 |   466    0.25000   0.16667   0.75000   |    1.48447   1.61942   0.20315    |
 |   467    0.25000   0.16667   0.83333   |    1.61942   1.75438   0.20315    |
 |   468    0.25000   0.16667   0.91667   |    1.75438   1.88933   0.20315    |
 |   469    0.25000   0.25000   0.00000   |    0.40486   0.40486   0.24377    |
 |   470    0.25000   0.25000   0.08333   |    0.53981   0.53981   0.24377    |
 |   471    0.25000   0.25000   0.16667   |    0.67476   0.67476   0.24377    |
 |   472    0.25000   0.25000   0.25000   |    0.80971   0.80971   0.24377    |
 |   473    0.25000   0.25000   0.33333   |    0.94466   0.94466   0.24377    |
 |   474    0.25000   0.25000   0.41667   |    1.07962   1.07962   0.24377    |
 |   475    0.25000   0.25000   0.50000   |    1.21457   1.21457   0.24377    |
 |   476    0.25000   0.25000   0.58333   |    1.34952   1.34952   0.24377    |
 |   477    0.25000   0.25000   0.66667   |    1.48447   1.48447   0.24377    |
 |   478    0.25000   0.25000   0.75000   |    1.61942   1.61942   0.24377    |
 |   479    0.25000   0.25000   0.83333   |    1.75438   1.75438   0.24377    |
 |   480    0.25000   0.25000   0.91667   |    1.88933   1.88933   0.24377    |
 |   481    0.25000   0.33333   0.00000   |    0.53981   0.40486   0.28440    |
 |   482    0.25000   0.33333   0.08333   |    0.67476   0.53981   0.28440    |
 |   483    0.25000   0.33333   0.16667   |    0.80971   0.67476   0.28440    |
 |   484    0.25000   0.33333   0.25000   |    0.94466   0.80971   0.28440    |
 |   485    0.25000   0.33333   0.33333   |    1.07962   0.94466   0.28440    |
 |   486    0.25000   0.33333   0.41667   |    1.21457   1.07962   0.28440    |
 |   487    0.25000   0.33333   0.50000   |    1.34952   1.21457   0.28440    |
 |   488    0.25000   0.33333   0.58333   |    1.48447   1.34952   0.28440    |
 |   489    0.25000   0.33333   0.66667   |    1.61942   1.48447   0.28440    |
 |   490    0.25000   0.33333   0.75000   |    1.75438   1.61942   0.28440    |
 |   491    0.25000   0.33333   0.83333   |    1.88933   1.75438   0.28440    |
 |   492    0.25000   0.33333   0.91667   |    2.02428   1.88933   0.28440    |
 |   493    0.25000   0.41667   0.00000   |    0.67476   0.40486   0.32503    |
 |   494    0.25000   0.41667   0.08333   |    0.80971   0.53981   0.32503    |
 |   495    0.25000   0.41667   0.16667   |    0.94466   0.67476   0.32503    |
 |   496    0.25000   0.41667   0.25000   |    1.07962   0.80971   0.32503    |
 |   497    0.25000   0.41667   0.33333   |    1.21457   0.94466   0.32503    |
 |   498    0.25000   0.41667   0.41667   |    1.34952   1.07962   0.32503    |
 |   499    0.25000   0.41667   0.50000   |    1.48447   1.21457   0.32503    |
 |   500    0.25000   0.41667   0.58333   |    1.61942   1.34952   0.32503    |
 |   501    0.25000   0.41667   0.66667   |    1.75438   1.48447   0.32503    |
 |   502    0.25000   0.41667   0.75000   |    1.88933   1.61942   0.32503    |
 |   503    0.25000   0.41667   0.83333   |    2.02428   1.75438   0.32503    |
 |   504    0.25000   0.41667   0.91667   |    2.15923   1.88933   0.32503    |
 |   505    0.25000   0.50000   0.00000   |    0.80971   0.40486   0.36566    |
 |   506    0.25000   0.50000   0.08333   |    0.94466   0.53981   0.36566    |
 |   507    0.25000   0.50000   0.16667   |    1.07962   0.67476   0.36566    |
 |   508    0.25000   0.50000   0.25000   |    1.21457   0.80971   0.36566    |
 |   509    0.25000   0.50000   0.33333   |    1.34952   0.94466   0.36566    |
 |   510    0.25000   0.50000   0.41667   |    1.48447   1.07962   0.36566    |
 |   511    0.25000   0.50000   0.50000   |    1.61942   1.21457   0.36566    |
 |   512    0.25000   0.50000   0.58333   |    1.75438   1.34952   0.36566    |
 |   513    0.25000   0.50000   0.66667   |    1.88933   1.48447   0.36566    |
 |   514    0.25000   0.50000   0.75000   |    2.02428   1.61942   0.36566    |
 |   515    0.25000   0.50000   0.83333   |    2.15923   1.75438   0.36566    |
 |   516    0.25000   0.50000   0.91667   |    2.29418   1.88933   0.36566    |
 |   517    0.25000   0.58333   0.00000   |    0.94466   0.40486   0.40629    |
 |   518    0.25000   0.58333   0.08333   |    1.07962   0.53981   0.40629    |
 |   519    0.25000   0.58333   0.16667   |    1.21457   0.67476   0.40629    |
 |   520    0.25000   0.58333   0.25000   |    1.34952   0.80971   0.40629    |
 |   521    0.25000   0.58333   0.33333   |    1.48447   0.94466   0.40629    |
 |   522    0.25000   0.58333   0.41667   |    1.61942   1.07962   0.40629    |
 |   523    0.25000   0.58333   0.50000   |    1.75438   1.21457   0.40629    |
 |   524    0.25000   0.58333   0.58333   |    1.88933   1.34952   0.40629    |
 |   525    0.25000   0.58333   0.66667   |    2.02428   1.48447   0.40629    |
 |   526    0.25000   0.58333   0.75000   |    2.15923   1.61942   0.40629    |
 |   527    0.25000   0.58333   0.83333   |    2.29418   1.75438   0.40629    |
 |   528    0.25000   0.58333   0.91667   |    2.42914   1.88933   0.40629    |
 |   529    0.25000   0.66667   0.00000   |    1.07962   0.40486   0.44692    |
 |   530    0.25000   0.66667   0.08333   |    1.21457   0.53981   0.44692    |
 |   531    0.25000   0.66667   0.16667   |    1.34952   0.67476   0.44692    |
 |   532    0.25000   0.66667   0.25000   |    1.48447   0.80971   0.44692    |
 |   533    0.25000   0.66667   0.33333   |    1.61942   0.94466   0.44692    |
 |   534    0.25000   0.66667   0.41667   |    1.75438   1.07962   0.44692    |
 |   535    0.25000   0.66667   0.50000   |    1.88933   1.21457   0.44692    |
 |   536    0.25000   0.66667   0.58333   |    2.02428   1.34952   0.44692    |
 |   537    0.25000   0.66667   0.66667   |    2.15923   1.48447   0.44692    |
 |   538    0.25000   0.66667   0.75000   |    2.29418   1.61942   0.44692    |
 |   539    0.25000   0.66667   0.83333   |    2.42914   1.75438   0.44692    |
 |   540    0.25000   0.66667   0.91667   |    2.56409   1.88933   0.44692    |
 |   541    0.25000   0.75000   0.00000   |    1.21457   0.40486   0.48755    |
 |   542    0.25000   0.75000   0.08333   |    1.34952   0.53981   0.48755    |
 |   543    0.25000   0.75000   0.16667   |    1.48447   0.67476   0.48755    |
 |   544    0.25000   0.75000   0.25000   |    1.61942   0.80971   0.48755    |
 |   545    0.25000   0.75000   0.33333   |    1.75438   0.94466   0.48755    |
 |   546    0.25000   0.75000   0.41667   |    1.88933   1.07962   0.48755    |
 |   547    0.25000   0.75000   0.50000   |    2.02428   1.21457   0.48755    |
 |   548    0.25000   0.75000   0.58333   |    2.15923   1.34952   0.48755    |
 |   549    0.25000   0.75000   0.66667   |    2.29418   1.48447   0.48755    |
 |   550    0.25000   0.75000   0.75000   |    2.42914   1.61942   0.48755    |
 |   551    0.25000   0.75000   0.83333   |    2.56409   1.75438   0.48755    |
 |   552    0.25000   0.75000   0.91667   |    2.69904   1.88933   0.48755    |
 |   553    0.25000   0.83333   0.00000   |    1.34952   0.40486   0.52818    |
 |   554    0.25000   0.83333   0.08333   |    1.48447   0.53981   0.52818    |
 |   555    0.25000   0.83333   0.16667   |    1.61942   0.67476   0.52818    |
 |   556    0.25000   0.83333   0.25000   |    1.75438   0.80971   0.52818    |
 |   557    0.25000   0.83333   0.33333   |    1.88933   0.94466   0.52818    |
 |   558    0.25000   0.83333   0.41667   |    2.02428   1.07962   0.52818    |
 |   559    0.25000   0.83333   0.50000   |    2.15923   1.21457   0.52818    |
 |   560    0.25000   0.83333   0.58333   |    2.29418   1.34952   0.52818    |
 |   561    0.25000   0.83333   0.66667   |    2.42914   1.48447   0.52818    |
 |   562    0.25000   0.83333   0.75000   |    2.56409   1.61942   0.52818    |
 |   563    0.25000   0.83333   0.83333   |    2.69904   1.75438   0.52818    |
 |   564    0.25000   0.83333   0.91667   |    2.83399   1.88933   0.52818    |
 |   565    0.25000   0.91667   0.00000   |    1.48447   0.40486   0.56881    |
 |   566    0.25000   0.91667   0.08333   |    1.61942   0.53981   0.56881    |
 |   567    0.25000   0.91667   0.16667   |    1.75438   0.67476   0.56881    |
 |   568    0.25000   0.91667   0.25000   |    1.88933   0.80971   0.56881    |
 |   569    0.25000   0.91667   0.33333   |    2.02428   0.94466   0.56881    |
 |   570    0.25000   0.91667   0.41667   |    2.15923   1.07962   0.56881    |
 |   571    0.25000   0.91667   0.50000   |    2.29418   1.21457   0.56881    |
 |   572    0.25000   0.91667   0.58333   |    2.42914   1.34952   0.56881    |
 |   573    0.25000   0.91667   0.66667   |    2.56409   1.48447   0.56881    |
 |   574    0.25000   0.91667   0.75000   |    2.69904   1.61942   0.56881    |
 |   575    0.25000   0.91667   0.83333   |    2.83399   1.75438   0.56881    |
 |   576    0.25000   0.91667   0.91667   |    2.96894   1.88933   0.56881    |
 |   577    0.33333   0.00000   0.00000   |    0.00000   0.53981   0.16252    |
 |   578    0.33333   0.00000   0.08333   |    0.13495   0.67476   0.16252    |
 |   579    0.33333   0.00000   0.16667   |    0.26990   0.80971   0.16252    |
 |   580    0.33333   0.00000   0.25000   |    0.40486   0.94466   0.16252    |
 |   581    0.33333   0.00000   0.33333   |    0.53981   1.07962   0.16252    |
 |   582    0.33333   0.00000   0.41667   |    0.67476   1.21457   0.16252    |
 |   583    0.33333   0.00000   0.50000   |    0.80971   1.34952   0.16252    |
 |   584    0.33333   0.00000   0.58333   |    0.94466   1.48447   0.16252    |
 |   585    0.33333   0.00000   0.66667   |    1.07962   1.61942   0.16252    |
 |   586    0.33333   0.00000   0.75000   |    1.21457   1.75438   0.16252    |
 |   587    0.33333   0.00000   0.83333   |    1.34952   1.88933   0.16252    |
 |   588    0.33333   0.00000   0.91667   |    1.48447   2.02428   0.16252    |
 |   589    0.33333   0.08333   0.00000   |    0.13495   0.53981   0.20315    |
 |   590    0.33333   0.08333   0.08333   |    0.26990   0.67476   0.20315    |
 |   591    0.33333   0.08333   0.16667   |    0.40486   0.80971   0.20315    |
 |   592    0.33333   0.08333   0.25000   |    0.53981   0.94466   0.20315    |
 |   593    0.33333   0.08333   0.33333   |    0.67476   1.07962   0.20315    |
 |   594    0.33333   0.08333   0.41667   |    0.80971   1.21457   0.20315    |
 |   595    0.33333   0.08333   0.50000   |    0.94466   1.34952   0.20315    |
 |   596    0.33333   0.08333   0.58333   |    1.07962   1.48447   0.20315    |
 |   597    0.33333   0.08333   0.66667   |    1.21457   1.61942   0.20315    |
 |   598    0.33333   0.08333   0.75000   |    1.34952   1.75438   0.20315    |
 |   599    0.33333   0.08333   0.83333   |    1.48447   1.88933   0.20315    |
 |   600    0.33333   0.08333   0.91667   |    1.61942   2.02428   0.20315    |
 |   601    0.33333   0.16667   0.00000   |    0.26990   0.53981   0.24377    |
 |   602    0.33333   0.16667   0.08333   |    0.40486   0.67476   0.24377    |
 |   603    0.33333   0.16667   0.16667   |    0.53981   0.80971   0.24377    |
 |   604    0.33333   0.16667   0.25000   |    0.67476   0.94466   0.24377    |
 |   605    0.33333   0.16667   0.33333   |    0.80971   1.07962   0.24377    |
 |   606    0.33333   0.16667   0.41667   |    0.94466   1.21457   0.24377    |
 |   607    0.33333   0.16667   0.50000   |    1.07962   1.34952   0.24377    |
 |   608    0.33333   0.16667   0.58333   |    1.21457   1.48447   0.24377    |
 |   609    0.33333   0.16667   0.66667   |    1.34952   1.61942   0.24377    |
 |   610    0.33333   0.16667   0.75000   |    1.48447   1.75438   0.24377    |
 |   611    0.33333   0.16667   0.83333   |    1.61942   1.88933   0.24377    |
 |   612    0.33333   0.16667   0.91667   |    1.75438   2.02428   0.24377    |
 |   613    0.33333   0.25000   0.00000   |    0.40486   0.53981   0.28440    |
 |   614    0.33333   0.25000   0.08333   |    0.53981   0.67476   0.28440    |
 |   615    0.33333   0.25000   0.16667   |    0.67476   0.80971   0.28440    |
 |   616    0.33333   0.25000   0.25000   |    0.80971   0.94466   0.28440    |
 |   617    0.33333   0.25000   0.33333   |    0.94466   1.07962   0.28440    |
 |   618    0.33333   0.25000   0.41667   |    1.07962   1.21457   0.28440    |
 |   619    0.33333   0.25000   0.50000   |    1.21457   1.34952   0.28440    |
 |   620    0.33333   0.25000   0.58333   |    1.34952   1.48447   0.28440    |
 |   621    0.33333   0.25000   0.66667   |    1.48447   1.61942   0.28440    |
 |   622    0.33333   0.25000   0.75000   |    1.61942   1.75438   0.28440    |
 |   623    0.33333   0.25000   0.83333   |    1.75438   1.88933   0.28440    |
 |   624    0.33333   0.25000   0.91667   |    1.88933   2.02428   0.28440    |
 |   625    0.33333   0.33333   0.00000   |    0.53981   0.53981   0.32503    |
 |   626    0.33333   0.33333   0.08333   |    0.67476   0.67476   0.32503    |
 |   627    0.33333   0.33333   0.16667   |    0.80971   0.80971   0.32503    |
 |   628    0.33333   0.33333   0.25000   |    0.94466   0.94466   0.32503    |
 |   629    0.33333   0.33333   0.33333   |    1.07962   1.07962   0.32503    |
 |   630    0.33333   0.33333   0.41667   |    1.21457   1.21457   0.32503    |
 |   631    0.33333   0.33333   0.50000   |    1.34952   1.34952   0.32503    |
 |   632    0.33333   0.33333   0.58333   |    1.48447   1.48447   0.32503    |
 |   633    0.33333   0.33333   0.66667   |    1.61942   1.61942   0.32503    |
 |   634    0.33333   0.33333   0.75000   |    1.75438   1.75438   0.32503    |
 |   635    0.33333   0.33333   0.83333   |    1.88933   1.88933   0.32503    |
 |   636    0.33333   0.33333   0.91667   |    2.02428   2.02428   0.32503    |
 |   637    0.33333   0.41667   0.00000   |    0.67476   0.53981   0.36566    |
 |   638    0.33333   0.41667   0.08333   |    0.80971   0.67476   0.36566    |
 |   639    0.33333   0.41667   0.16667   |    0.94466   0.80971   0.36566    |
 |   640    0.33333   0.41667   0.25000   |    1.07962   0.94466   0.36566    |
 |   641    0.33333   0.41667   0.33333   |    1.21457   1.07962   0.36566    |
 |   642    0.33333   0.41667   0.41667   |    1.34952   1.21457   0.36566    |
 |   643    0.33333   0.41667   0.50000   |    1.48447   1.34952   0.36566    |
 |   644    0.33333   0.41667   0.58333   |    1.61942   1.48447   0.36566    |
 |   645    0.33333   0.41667   0.66667   |    1.75438   1.61942   0.36566    |
 |   646    0.33333   0.41667   0.75000   |    1.88933   1.75438   0.36566    |
 |   647    0.33333   0.41667   0.83333   |    2.02428   1.88933   0.36566    |
 |   648    0.33333   0.41667   0.91667   |    2.15923   2.02428   0.36566    |
 |   649    0.33333   0.50000   0.00000   |    0.80971   0.53981   0.40629    |
 |   650    0.33333   0.50000   0.08333   |    0.94466   0.67476   0.40629    |
 |   651    0.33333   0.50000   0.16667   |    1.07962   0.80971   0.40629    |
 |   652    0.33333   0.50000   0.25000   |    1.21457   0.94466   0.40629    |
 |   653    0.33333   0.50000   0.33333   |    1.34952   1.07962   0.40629    |
 |   654    0.33333   0.50000   0.41667   |    1.48447   1.21457   0.40629    |
 |   655    0.33333   0.50000   0.50000   |    1.61942   1.34952   0.40629    |
 |   656    0.33333   0.50000   0.58333   |    1.75438   1.48447   0.40629    |
 |   657    0.33333   0.50000   0.66667   |    1.88933   1.61942   0.40629    |
 |   658    0.33333   0.50000   0.75000   |    2.02428   1.75438   0.40629    |
 |   659    0.33333   0.50000   0.83333   |    2.15923   1.88933   0.40629    |
 |   660    0.33333   0.50000   0.91667   |    2.29418   2.02428   0.40629    |
 |   661    0.33333   0.58333   0.00000   |    0.94466   0.53981   0.44692    |
 |   662    0.33333   0.58333   0.08333   |    1.07962   0.67476   0.44692    |
 |   663    0.33333   0.58333   0.16667   |    1.21457   0.80971   0.44692    |
 |   664    0.33333   0.58333   0.25000   |    1.34952   0.94466   0.44692    |
 |   665    0.33333   0.58333   0.33333   |    1.48447   1.07962   0.44692    |
 |   666    0.33333   0.58333   0.41667   |    1.61942   1.21457   0.44692    |
 |   667    0.33333   0.58333   0.50000   |    1.75438   1.34952   0.44692    |
 |   668    0.33333   0.58333   0.58333   |    1.88933   1.48447   0.44692    |
 |   669    0.33333   0.58333   0.66667   |    2.02428   1.61942   0.44692    |
 |   670    0.33333   0.58333   0.75000   |    2.15923   1.75438   0.44692    |
 |   671    0.33333   0.58333   0.83333   |    2.29418   1.88933   0.44692    |
 |   672    0.33333   0.58333   0.91667   |    2.42914   2.02428   0.44692    |
 |   673    0.33333   0.66667   0.00000   |    1.07962   0.53981   0.48755    |
 |   674    0.33333   0.66667   0.08333   |    1.21457   0.67476   0.48755    |
 |   675    0.33333   0.66667   0.16667   |    1.34952   0.80971   0.48755    |
 |   676    0.33333   0.66667   0.25000   |    1.48447   0.94466   0.48755    |
 |   677    0.33333   0.66667   0.33333   |    1.61942   1.07962   0.48755    |
 |   678    0.33333   0.66667   0.41667   |    1.75438   1.21457   0.48755    |
 |   679    0.33333   0.66667   0.50000   |    1.88933   1.34952   0.48755    |
 |   680    0.33333   0.66667   0.58333   |    2.02428   1.48447   0.48755    |
 |   681    0.33333   0.66667   0.66667   |    2.15923   1.61942   0.48755    |
 |   682    0.33333   0.66667   0.75000   |    2.29418   1.75438   0.48755    |
 |   683    0.33333   0.66667   0.83333   |    2.42914   1.88933   0.48755    |
 |   684    0.33333   0.66667   0.91667   |    2.56409   2.02428   0.48755    |
 |   685    0.33333   0.75000   0.00000   |    1.21457   0.53981   0.52818    |
 |   686    0.33333   0.75000   0.08333   |    1.34952   0.67476   0.52818    |
 |   687    0.33333   0.75000   0.16667   |    1.48447   0.80971   0.52818    |
 |   688    0.33333   0.75000   0.25000   |    1.61942   0.94466   0.52818    |
 |   689    0.33333   0.75000   0.33333   |    1.75438   1.07962   0.52818    |
 |   690    0.33333   0.75000   0.41667   |    1.88933   1.21457   0.52818    |
 |   691    0.33333   0.75000   0.50000   |    2.02428   1.34952   0.52818    |
 |   692    0.33333   0.75000   0.58333   |    2.15923   1.48447   0.52818    |
 |   693    0.33333   0.75000   0.66667   |    2.29418   1.61942   0.52818    |
 |   694    0.33333   0.75000   0.75000   |    2.42914   1.75438   0.52818    |
 |   695    0.33333   0.75000   0.83333   |    2.56409   1.88933   0.52818    |
 |   696    0.33333   0.75000   0.91667   |    2.69904   2.02428   0.52818    |
 |   697    0.33333   0.83333   0.00000   |    1.34952   0.53981   0.56881    |
 |   698    0.33333   0.83333   0.08333   |    1.48447   0.67476   0.56881    |
 |   699    0.33333   0.83333   0.16667   |    1.61942   0.80971   0.56881    |
 |   700    0.33333   0.83333   0.25000   |    1.75438   0.94466   0.56881    |
 |   701    0.33333   0.83333   0.33333   |    1.88933   1.07962   0.56881    |
 |   702    0.33333   0.83333   0.41667   |    2.02428   1.21457   0.56881    |
 |   703    0.33333   0.83333   0.50000   |    2.15923   1.34952   0.56881    |
 |   704    0.33333   0.83333   0.58333   |    2.29418   1.48447   0.56881    |
 |   705    0.33333   0.83333   0.66667   |    2.42914   1.61942   0.56881    |
 |   706    0.33333   0.83333   0.75000   |    2.56409   1.75438   0.56881    |
 |   707    0.33333   0.83333   0.83333   |    2.69904   1.88933   0.56881    |
 |   708    0.33333   0.83333   0.91667   |    2.83399   2.02428   0.56881    |
 |   709    0.33333   0.91667   0.00000   |    1.48447   0.53981   0.60944    |
 |   710    0.33333   0.91667   0.08333   |    1.61942   0.67476   0.60944    |
 |   711    0.33333   0.91667   0.16667   |    1.75438   0.80971   0.60944    |
 |   712    0.33333   0.91667   0.25000   |    1.88933   0.94466   0.60944    |
 |   713    0.33333   0.91667   0.33333   |    2.02428   1.07962   0.60944    |
 |   714    0.33333   0.91667   0.41667   |    2.15923   1.21457   0.60944    |
 |   715    0.33333   0.91667   0.50000   |    2.29418   1.34952   0.60944    |
 |   716    0.33333   0.91667   0.58333   |    2.42914   1.48447   0.60944    |
 |   717    0.33333   0.91667   0.66667   |    2.56409   1.61942   0.60944    |
 |   718    0.33333   0.91667   0.75000   |    2.69904   1.75438   0.60944    |
 |   719    0.33333   0.91667   0.83333   |    2.83399   1.88933   0.60944    |
 |   720    0.33333   0.91667   0.91667   |    2.96894   2.02428   0.60944    |
 |   721    0.41667   0.00000   0.00000   |    0.00000   0.67476   0.20315    |
 |   722    0.41667   0.00000   0.08333   |    0.13495   0.80971   0.20315    |
 |   723    0.41667   0.00000   0.16667   |    0.26990   0.94466   0.20315    |
 |   724    0.41667   0.00000   0.25000   |    0.40486   1.07962   0.20315    |
 |   725    0.41667   0.00000   0.33333   |    0.53981   1.21457   0.20315    |
 |   726    0.41667   0.00000   0.41667   |    0.67476   1.34952   0.20315    |
 |   727    0.41667   0.00000   0.50000   |    0.80971   1.48447   0.20315    |
 |   728    0.41667   0.00000   0.58333   |    0.94466   1.61942   0.20315    |
 |   729    0.41667   0.00000   0.66667   |    1.07962   1.75438   0.20315    |
 |   730    0.41667   0.00000   0.75000   |    1.21457   1.88933   0.20315    |
 |   731    0.41667   0.00000   0.83333   |    1.34952   2.02428   0.20315    |
 |   732    0.41667   0.00000   0.91667   |    1.48447   2.15923   0.20315    |
 |   733    0.41667   0.08333   0.00000   |    0.13495   0.67476   0.24377    |
 |   734    0.41667   0.08333   0.08333   |    0.26990   0.80971   0.24377    |
 |   735    0.41667   0.08333   0.16667   |    0.40486   0.94466   0.24377    |
 |   736    0.41667   0.08333   0.25000   |    0.53981   1.07962   0.24377    |
 |   737    0.41667   0.08333   0.33333   |    0.67476   1.21457   0.24377    |
 |   738    0.41667   0.08333   0.41667   |    0.80971   1.34952   0.24377    |
 |   739    0.41667   0.08333   0.50000   |    0.94466   1.48447   0.24377    |
 |   740    0.41667   0.08333   0.58333   |    1.07962   1.61942   0.24377    |
 |   741    0.41667   0.08333   0.66667   |    1.21457   1.75438   0.24377    |
 |   742    0.41667   0.08333   0.75000   |    1.34952   1.88933   0.24377    |
 |   743    0.41667   0.08333   0.83333   |    1.48447   2.02428   0.24377    |
 |   744    0.41667   0.08333   0.91667   |    1.61942   2.15923   0.24377    |
 |   745    0.41667   0.16667   0.00000   |    0.26990   0.67476   0.28440    |
 |   746    0.41667   0.16667   0.08333   |    0.40486   0.80971   0.28440    |
 |   747    0.41667   0.16667   0.16667   |    0.53981   0.94466   0.28440    |
 |   748    0.41667   0.16667   0.25000   |    0.67476   1.07962   0.28440    |
 |   749    0.41667   0.16667   0.33333   |    0.80971   1.21457   0.28440    |
 |   750    0.41667   0.16667   0.41667   |    0.94466   1.34952   0.28440    |
 |   751    0.41667   0.16667   0.50000   |    1.07962   1.48447   0.28440    |
 |   752    0.41667   0.16667   0.58333   |    1.21457   1.61942   0.28440    |
 |   753    0.41667   0.16667   0.66667   |    1.34952   1.75438   0.28440    |
 |   754    0.41667   0.16667   0.75000   |    1.48447   1.88933   0.28440    |
 |   755    0.41667   0.16667   0.83333   |    1.61942   2.02428   0.28440    |
 |   756    0.41667   0.16667   0.91667   |    1.75438   2.15923   0.28440    |
 |   757    0.41667   0.25000   0.00000   |    0.40486   0.67476   0.32503    |
 |   758    0.41667   0.25000   0.08333   |    0.53981   0.80971   0.32503    |
 |   759    0.41667   0.25000   0.16667   |    0.67476   0.94466   0.32503    |
 |   760    0.41667   0.25000   0.25000   |    0.80971   1.07962   0.32503    |
 |   761    0.41667   0.25000   0.33333   |    0.94466   1.21457   0.32503    |
 |   762    0.41667   0.25000   0.41667   |    1.07962   1.34952   0.32503    |
 |   763    0.41667   0.25000   0.50000   |    1.21457   1.48447   0.32503    |
 |   764    0.41667   0.25000   0.58333   |    1.34952   1.61942   0.32503    |
 |   765    0.41667   0.25000   0.66667   |    1.48447   1.75438   0.32503    |
 |   766    0.41667   0.25000   0.75000   |    1.61942   1.88933   0.32503    |
 |   767    0.41667   0.25000   0.83333   |    1.75438   2.02428   0.32503    |
 |   768    0.41667   0.25000   0.91667   |    1.88933   2.15923   0.32503    |
 |   769    0.41667   0.33333   0.00000   |    0.53981   0.67476   0.36566    |
 |   770    0.41667   0.33333   0.08333   |    0.67476   0.80971   0.36566    |
 |   771    0.41667   0.33333   0.16667   |    0.80971   0.94466   0.36566    |
 |   772    0.41667   0.33333   0.25000   |    0.94466   1.07962   0.36566    |
 |   773    0.41667   0.33333   0.33333   |    1.07962   1.21457   0.36566    |
 |   774    0.41667   0.33333   0.41667   |    1.21457   1.34952   0.36566    |
 |   775    0.41667   0.33333   0.50000   |    1.34952   1.48447   0.36566    |
 |   776    0.41667   0.33333   0.58333   |    1.48447   1.61942   0.36566    |
 |   777    0.41667   0.33333   0.66667   |    1.61942   1.75438   0.36566    |
 |   778    0.41667   0.33333   0.75000   |    1.75438   1.88933   0.36566    |
 |   779    0.41667   0.33333   0.83333   |    1.88933   2.02428   0.36566    |
 |   780    0.41667   0.33333   0.91667   |    2.02428   2.15923   0.36566    |
 |   781    0.41667   0.41667   0.00000   |    0.67476   0.67476   0.40629    |
 |   782    0.41667   0.41667   0.08333   |    0.80971   0.80971   0.40629    |
 |   783    0.41667   0.41667   0.16667   |    0.94466   0.94466   0.40629    |
 |   784    0.41667   0.41667   0.25000   |    1.07962   1.07962   0.40629    |
 |   785    0.41667   0.41667   0.33333   |    1.21457   1.21457   0.40629    |
 |   786    0.41667   0.41667   0.41667   |    1.34952   1.34952   0.40629    |
 |   787    0.41667   0.41667   0.50000   |    1.48447   1.48447   0.40629    |
 |   788    0.41667   0.41667   0.58333   |    1.61942   1.61942   0.40629    |
 |   789    0.41667   0.41667   0.66667   |    1.75438   1.75438   0.40629    |
 |   790    0.41667   0.41667   0.75000   |    1.88933   1.88933   0.40629    |
 |   791    0.41667   0.41667   0.83333   |    2.02428   2.02428   0.40629    |
 |   792    0.41667   0.41667   0.91667   |    2.15923   2.15923   0.40629    |
 |   793    0.41667   0.50000   0.00000   |    0.80971   0.67476   0.44692    |
 |   794    0.41667   0.50000   0.08333   |    0.94466   0.80971   0.44692    |
 |   795    0.41667   0.50000   0.16667   |    1.07962   0.94466   0.44692    |
 |   796    0.41667   0.50000   0.25000   |    1.21457   1.07962   0.44692    |
 |   797    0.41667   0.50000   0.33333   |    1.34952   1.21457   0.44692    |
 |   798    0.41667   0.50000   0.41667   |    1.48447   1.34952   0.44692    |
 |   799    0.41667   0.50000   0.50000   |    1.61942   1.48447   0.44692    |
 |   800    0.41667   0.50000   0.58333   |    1.75438   1.61942   0.44692    |
 |   801    0.41667   0.50000   0.66667   |    1.88933   1.75438   0.44692    |
 |   802    0.41667   0.50000   0.75000   |    2.02428   1.88933   0.44692    |
 |   803    0.41667   0.50000   0.83333   |    2.15923   2.02428   0.44692    |
 |   804    0.41667   0.50000   0.91667   |    2.29418   2.15923   0.44692    |
 |   805    0.41667   0.58333   0.00000   |    0.94466   0.67476   0.48755    |
 |   806    0.41667   0.58333   0.08333   |    1.07962   0.80971   0.48755    |
 |   807    0.41667   0.58333   0.16667   |    1.21457   0.94466   0.48755    |
 |   808    0.41667   0.58333   0.25000   |    1.34952   1.07962   0.48755    |
 |   809    0.41667   0.58333   0.33333   |    1.48447   1.21457   0.48755    |
 |   810    0.41667   0.58333   0.41667   |    1.61942   1.34952   0.48755    |
 |   811    0.41667   0.58333   0.50000   |    1.75438   1.48447   0.48755    |
 |   812    0.41667   0.58333   0.58333   |    1.88933   1.61942   0.48755    |
 |   813    0.41667   0.58333   0.66667   |    2.02428   1.75438   0.48755    |
 |   814    0.41667   0.58333   0.75000   |    2.15923   1.88933   0.48755    |
 |   815    0.41667   0.58333   0.83333   |    2.29418   2.02428   0.48755    |
 |   816    0.41667   0.58333   0.91667   |    2.42914   2.15923   0.48755    |
 |   817    0.41667   0.66667   0.00000   |    1.07962   0.67476   0.52818    |
 |   818    0.41667   0.66667   0.08333   |    1.21457   0.80971   0.52818    |
 |   819    0.41667   0.66667   0.16667   |    1.34952   0.94466   0.52818    |
 |   820    0.41667   0.66667   0.25000   |    1.48447   1.07962   0.52818    |
 |   821    0.41667   0.66667   0.33333   |    1.61942   1.21457   0.52818    |
 |   822    0.41667   0.66667   0.41667   |    1.75438   1.34952   0.52818    |
 |   823    0.41667   0.66667   0.50000   |    1.88933   1.48447   0.52818    |
 |   824    0.41667   0.66667   0.58333   |    2.02428   1.61942   0.52818    |
 |   825    0.41667   0.66667   0.66667   |    2.15923   1.75438   0.52818    |
 |   826    0.41667   0.66667   0.75000   |    2.29418   1.88933   0.52818    |
 |   827    0.41667   0.66667   0.83333   |    2.42914   2.02428   0.52818    |
 |   828    0.41667   0.66667   0.91667   |    2.56409   2.15923   0.52818    |
 |   829    0.41667   0.75000   0.00000   |    1.21457   0.67476   0.56881    |
 |   830    0.41667   0.75000   0.08333   |    1.34952   0.80971   0.56881    |
 |   831    0.41667   0.75000   0.16667   |    1.48447   0.94466   0.56881    |
 |   832    0.41667   0.75000   0.25000   |    1.61942   1.07962   0.56881    |
 |   833    0.41667   0.75000   0.33333   |    1.75438   1.21457   0.56881    |
 |   834    0.41667   0.75000   0.41667   |    1.88933   1.34952   0.56881    |
 |   835    0.41667   0.75000   0.50000   |    2.02428   1.48447   0.56881    |
 |   836    0.41667   0.75000   0.58333   |    2.15923   1.61942   0.56881    |
 |   837    0.41667   0.75000   0.66667   |    2.29418   1.75438   0.56881    |
 |   838    0.41667   0.75000   0.75000   |    2.42914   1.88933   0.56881    |
 |   839    0.41667   0.75000   0.83333   |    2.56409   2.02428   0.56881    |
 |   840    0.41667   0.75000   0.91667   |    2.69904   2.15923   0.56881    |
 |   841    0.41667   0.83333   0.00000   |    1.34952   0.67476   0.60944    |
 |   842    0.41667   0.83333   0.08333   |    1.48447   0.80971   0.60944    |
 |   843    0.41667   0.83333   0.16667   |    1.61942   0.94466   0.60944    |
 |   844    0.41667   0.83333   0.25000   |    1.75438   1.07962   0.60944    |
 |   845    0.41667   0.83333   0.33333   |    1.88933   1.21457   0.60944    |
 |   846    0.41667   0.83333   0.41667   |    2.02428   1.34952   0.60944    |
 |   847    0.41667   0.83333   0.50000   |    2.15923   1.48447   0.60944    |
 |   848    0.41667   0.83333   0.58333   |    2.29418   1.61942   0.60944    |
 |   849    0.41667   0.83333   0.66667   |    2.42914   1.75438   0.60944    |
 |   850    0.41667   0.83333   0.75000   |    2.56409   1.88933   0.60944    |
 |   851    0.41667   0.83333   0.83333   |    2.69904   2.02428   0.60944    |
 |   852    0.41667   0.83333   0.91667   |    2.83399   2.15923   0.60944    |
 |   853    0.41667   0.91667   0.00000   |    1.48447   0.67476   0.65006    |
 |   854    0.41667   0.91667   0.08333   |    1.61942   0.80971   0.65006    |
 |   855    0.41667   0.91667   0.16667   |    1.75438   0.94466   0.65006    |
 |   856    0.41667   0.91667   0.25000   |    1.88933   1.07962   0.65006    |
 |   857    0.41667   0.91667   0.33333   |    2.02428   1.21457   0.65006    |
 |   858    0.41667   0.91667   0.41667   |    2.15923   1.34952   0.65006    |
 |   859    0.41667   0.91667   0.50000   |    2.29418   1.48447   0.65006    |
 |   860    0.41667   0.91667   0.58333   |    2.42914   1.61942   0.65006    |
 |   861    0.41667   0.91667   0.66667   |    2.56409   1.75438   0.65006    |
 |   862    0.41667   0.91667   0.75000   |    2.69904   1.88933   0.65006    |
 |   863    0.41667   0.91667   0.83333   |    2.83399   2.02428   0.65006    |
 |   864    0.41667   0.91667   0.91667   |    2.96894   2.15923   0.65006    |
 |   865    0.50000   0.00000   0.00000   |    0.00000   0.80971   0.24377    |
 |   866    0.50000   0.00000   0.08333   |    0.13495   0.94466   0.24377    |
 |   867    0.50000   0.00000   0.16667   |    0.26990   1.07962   0.24377    |
 |   868    0.50000   0.00000   0.25000   |    0.40486   1.21457   0.24377    |
 |   869    0.50000   0.00000   0.33333   |    0.53981   1.34952   0.24377    |
 |   870    0.50000   0.00000   0.41667   |    0.67476   1.48447   0.24377    |
 |   871    0.50000   0.00000   0.50000   |    0.80971   1.61942   0.24377    |
 |   872    0.50000   0.00000   0.58333   |    0.94466   1.75438   0.24377    |
 |   873    0.50000   0.00000   0.66667   |    1.07962   1.88933   0.24377    |
 |   874    0.50000   0.00000   0.75000   |    1.21457   2.02428   0.24377    |
 |   875    0.50000   0.00000   0.83333   |    1.34952   2.15923   0.24377    |
 |   876    0.50000   0.00000   0.91667   |    1.48447   2.29418   0.24377    |
 |   877    0.50000   0.08333   0.00000   |    0.13495   0.80971   0.28440    |
 |   878    0.50000   0.08333   0.08333   |    0.26990   0.94466   0.28440    |
 |   879    0.50000   0.08333   0.16667   |    0.40486   1.07962   0.28440    |
 |   880    0.50000   0.08333   0.25000   |    0.53981   1.21457   0.28440    |
 |   881    0.50000   0.08333   0.33333   |    0.67476   1.34952   0.28440    |
 |   882    0.50000   0.08333   0.41667   |    0.80971   1.48447   0.28440    |
 |   883    0.50000   0.08333   0.50000   |    0.94466   1.61942   0.28440    |
 |   884    0.50000   0.08333   0.58333   |    1.07962   1.75438   0.28440    |
 |   885    0.50000   0.08333   0.66667   |    1.21457   1.88933   0.28440    |
 |   886    0.50000   0.08333   0.75000   |    1.34952   2.02428   0.28440    |
 |   887    0.50000   0.08333   0.83333   |    1.48447   2.15923   0.28440    |
 |   888    0.50000   0.08333   0.91667   |    1.61942   2.29418   0.28440    |
 |   889    0.50000   0.16667   0.00000   |    0.26990   0.80971   0.32503    |
 |   890    0.50000   0.16667   0.08333   |    0.40486   0.94466   0.32503    |
 |   891    0.50000   0.16667   0.16667   |    0.53981   1.07962   0.32503    |
 |   892    0.50000   0.16667   0.25000   |    0.67476   1.21457   0.32503    |
 |   893    0.50000   0.16667   0.33333   |    0.80971   1.34952   0.32503    |
 |   894    0.50000   0.16667   0.41667   |    0.94466   1.48447   0.32503    |
 |   895    0.50000   0.16667   0.50000   |    1.07962   1.61942   0.32503    |
 |   896    0.50000   0.16667   0.58333   |    1.21457   1.75438   0.32503    |
 |   897    0.50000   0.16667   0.66667   |    1.34952   1.88933   0.32503    |
 |   898    0.50000   0.16667   0.75000   |    1.48447   2.02428   0.32503    |
 |   899    0.50000   0.16667   0.83333   |    1.61942   2.15923   0.32503    |
[...]
  WF centre and spread    1  ( -0.000000,  0.000000, -0.000000 )     3.80107766
  WF centre and spread    2  ( -0.000000, -0.000000, -0.000000 )     3.80107766
  WF centre and spread    3  ( -0.000000, -0.000000,  0.000000 )     3.57686531
  Sum of centres and spreads ( -0.000000, -0.000000, -0.000000 )    11.17902063

      4    -0.399E-04     0.0058815375       11.1790206252       2.73  <-- CONV
        O_D=      0.0000000 O_OD=      0.0210865 O_TOT=     11.1790206 <-- SPRD
 Delta: O_D= -0.2455994E-14 O_OD= -0.3988926E-04 O_TOT= -0.3988926E-04 <-- DLTA
 ------------------------------------------------------------------------------
 Cycle:      5
  WF centre and spread    1  ( -0.000000,  0.000000, -0.000000 )     3.80107305
  WF centre and spread    2  ( -0.000000, -0.000000, -0.000000 )     3.80107305
  WF centre and spread    3  ( -0.000000, -0.000000,  0.000000 )     3.57686508
  Sum of centres and spreads ( -0.000000, -0.000000, -0.000000 )    11.17901118

      5    -0.944E-05     0.0024533594       11.1790111841       2.77  <-- CONV
        O_D=      0.0000000 O_OD=      0.0210771 O_TOT=     11.1790112 <-- SPRD
 Delta: O_D= -0.7435123E-16 O_OD= -0.9441101E-05 O_TOT= -0.9441101E-05 <-- DLTA
 ------------------------------------------------------------------------------
 Cycle:      6
  WF centre and spread    1  ( -0.000000,  0.000000, -0.000000 )     3.80107090
  WF centre and spread    2  ( -0.000000, -0.000000, -0.000000 )     3.80107090
  WF centre and spread    3  ( -0.000000, -0.000000,  0.000000 )     3.57686682
  Sum of centres and spreads ( -0.000000, -0.000000, -0.000000 )    11.17900862

      6    -0.257E-05     0.0013576782       11.1790086163       2.81  <-- CONV
        O_D=      0.0000000 O_OD=      0.0210745 O_TOT=     11.1790086 <-- SPRD
 Delta: O_D= -0.5708678E-16 O_OD= -0.2567810E-05 O_TOT= -0.2567810E-05 <-- DLTA
 ------------------------------------------------------------------------------
 Cycle:      7
  WF centre and spread    1  ( -0.000000,  0.000000, -0.000000 )     3.80107027
  WF centre and spread    2  ( -0.000000, -0.000000, -0.000000 )     3.80107027
  WF centre and spread    3  ( -0.000000, -0.000000,  0.000000 )     3.57686734
  Sum of centres and spreads ( -0.000000, -0.000000, -0.000000 )    11.17900789

      7    -0.726E-06     0.0007836278       11.1790078908       2.85  <-- CONV
        O_D=      0.0000000 O_OD=      0.0210738 O_TOT=     11.1790079 <-- SPRD
 Delta: O_D= -0.1065223E-16 O_OD= -0.7255339E-06 O_TOT= -0.7255339E-06 <-- DLTA
 ------------------------------------------------------------------------------
 Cycle:      8
  WF centre and spread    1  ( -0.000000,  0.000000, -0.000000 )     3.80106913
  WF centre and spread    2  ( -0.000000, -0.000000, -0.000000 )     3.80106913
  WF centre and spread    3  ( -0.000000, -0.000000,  0.000000 )     3.57686901
  Sum of centres and spreads ( -0.000000, -0.000000, -0.000000 )    11.17900726

      8    -0.628E-06     0.0005466422       11.1790072631       2.89  <-- CONV
        O_D=      0.0000000 O_OD=      0.0210731 O_TOT=     11.1790073 <-- SPRD
 Delta: O_D= -0.1748537E-16 O_OD= -0.6276083E-06 O_TOT= -0.6276083E-06 <-- DLTA
 ------------------------------------------------------------------------------
 Cycle:      9
  WF centre and spread    1  ( -0.000000,  0.000000, -0.000000 )     3.80106810
  WF centre and spread    2  ( -0.000000, -0.000000, -0.000000 )     3.80106810
  WF centre and spread    3  ( -0.000000, -0.000000,  0.000000 )     3.57687069
  Sum of centres and spreads ( -0.000000, -0.000000, -0.000000 )    11.17900690

      9    -0.368E-06     0.0004488961       11.1790068950       2.93  <-- CONV
        O_D=      0.0000000 O_OD=      0.0210728 O_TOT=     11.1790069 <-- SPRD
 Delta: O_D= -0.1946619E-17 O_OD= -0.3681105E-06 O_TOT= -0.3681105E-06 <-- DLTA
 ------------------------------------------------------------------------------
 Cycle:     10
  WF centre and spread    1  ( -0.000000,  0.000000, -0.000000 )     3.80106752
  WF centre and spread    2  ( -0.000000, -0.000000, -0.000000 )     3.80106752
  WF centre and spread    3  ( -0.000000, -0.000000,  0.000000 )     3.57687170
  Sum of centres and spreads ( -0.000000, -0.000000, -0.000000 )    11.17900675

     10    -0.147E-06     0.0003236751       11.1790067482       2.98  <-- CONV
        O_D=      0.0000000 O_OD=      0.0210726 O_TOT=     11.1790067 <-- SPRD
 Delta: O_D= -0.4569410E-17 O_OD= -0.1468678E-06 O_TOT= -0.1468678E-06 <-- DLTA
 ------------------------------------------------------------------------------
 Cycle:     11
  WF centre and spread    1  ( -0.000000,  0.000000, -0.000000 )     3.80106728
  WF centre and spread    2  ( -0.000000, -0.000000, -0.000000 )     3.80106728
  WF centre and spread    3  ( -0.000000, -0.000000,  0.000000 )     3.57687214
  Sum of centres and spreads ( -0.000000, -0.000000, -0.000000 )    11.17900670

     11    -0.457E-07     0.0001863696       11.1790067025       3.02  <-- CONV
        O_D=      0.0000000 O_OD=      0.0210726 O_TOT=     11.1790067 <-- SPRD
 Delta: O_D= -0.2238572E-17 O_OD= -0.4569339E-07 O_TOT= -0.4569339E-07 <-- DLTA
 ------------------------------------------------------------------------------
 Cycle:     12
  WF centre and spread    1  ( -0.000000,  0.000000, -0.000000 )     3.80106718
  WF centre and spread    2  ( -0.000000, -0.000000, -0.000000 )     3.80106718
  WF centre and spread    3  ( -0.000000, -0.000000,  0.000000 )     3.57687232
  Sum of centres and spreads ( -0.000000, -0.000000, -0.000000 )    11.17900669

     12    -0.114E-07     0.0000893712       11.1790066911       3.06  <-- CONV
        O_D=      0.0000000 O_OD=      0.0210726 O_TOT=     11.1790067 <-- SPRD
 Delta: O_D=  0.4120038E-19 O_OD= -0.1139127E-07 O_TOT= -0.1139127E-07 <-- DLTA
 ------------------------------------------------------------------------------
 Cycle:     13
  WF centre and spread    1  ( -0.000000,  0.000000, -0.000000 )     3.80106719
  WF centre and spread    2  ( -0.000000, -0.000000, -0.000000 )     3.80106719
  WF centre and spread    3  ( -0.000000, -0.000000,  0.000000 )     3.57687231
  Sum of centres and spreads ( -0.000000, -0.000000, -0.000000 )    11.17900669

     13    -0.343E-08     0.0000660007       11.1790066876       3.10  <-- CONV
        O_D=      0.0000000 O_OD=      0.0210726 O_TOT=     11.1790067 <-- SPRD
 Delta: O_D= -0.5798297E-18 O_OD= -0.3431686E-08 O_TOT= -0.3431685E-08 <-- DLTA
 ------------------------------------------------------------------------------
 Cycle:     14
  WF centre and spread    1  ( -0.000000,  0.000000, -0.000000 )     3.80106719
  WF centre and spread    2  ( -0.000000, -0.000000, -0.000000 )     3.80106719
  WF centre and spread    3  ( -0.000000, -0.000000,  0.000000 )     3.57687231
  Sum of centres and spreads ( -0.000000, -0.000000, -0.000000 )    11.17900669

     14    -0.126E-11     0.0000226851       11.1790066876       3.13  <-- CONV
        O_D=      0.0000000 O_OD=      0.0210726 O_TOT=     11.1790067 <-- SPRD
 Delta: O_D= -0.2024696E-22 O_OD= -0.1263319E-11 O_TOT= -0.1264766E-11 <-- DLTA
 ------------------------------------------------------------------------------
 Cycle:     15
  WF centre and spread    1  ( -0.000000,  0.000000, -0.000000 )     3.80106719
  WF centre and spread    2  ( -0.000000, -0.000000, -0.000000 )     3.80106719
  WF centre and spread    3  ( -0.000000, -0.000000,  0.000000 )     3.57687231
  Sum of centres and spreads ( -0.000000, -0.000000, -0.000000 )    11.17900669

     15    -0.236E-11     0.0000226739       11.1790066876       3.15  <-- CONV
        O_D=      0.0000000 O_OD=      0.0210726 O_TOT=     11.1790067 <-- SPRD
 Delta: O_D= -0.6191742E-22 O_OD= -0.2359713E-11 O_TOT= -0.2359002E-11 <-- DLTA
 ------------------------------------------------------------------------------
 Cycle:     16
  WF centre and spread    1  ( -0.000000,  0.000000, -0.000000 )     3.80106719
  WF centre and spread    2  ( -0.000000, -0.000000, -0.000000 )     3.80106719
  WF centre and spread    3  ( -0.000000, -0.000000,  0.000000 )     3.57687231
  Sum of centres and spreads ( -0.000000, -0.000000, -0.000000 )    11.17900669

     16    -0.345E-11     0.0000226525       11.1790066876       3.18  <-- CONV
        O_D=      0.0000000 O_OD=      0.0210726 O_TOT=     11.1790067 <-- SPRD
 Delta: O_D= -0.1032033E-21 O_OD= -0.3449432E-11 O_TOT= -0.3449685E-11 <-- DLTA
 ------------------------------------------------------------------------------
 Cycle:     17
  WF centre and spread    1  ( -0.000000,  0.000000, -0.000000 )     3.80106720
  WF centre and spread    2  ( -0.000000, -0.000000, -0.000000 )     3.80106720
  WF centre and spread    3  ( -0.000000, -0.000000,  0.000000 )     3.57687230
  Sum of centres and spreads ( -0.000000, -0.000000, -0.000000 )    11.17900669

     17    -0.118E-08     0.0000226209       11.1790066865       3.22  <-- CONV
        O_D=      0.0000000 O_OD=      0.0210726 O_TOT=     11.1790067 <-- SPRD
 Delta: O_D= -0.5006450E-20 O_OD= -0.1177142E-08 O_TOT= -0.1177142E-08 <-- DLTA
 ------------------------------------------------------------------------------
 Cycle:     18
  WF centre and spread    1  ( -0.000000,  0.000000, -0.000000 )     3.80106720
  WF centre and spread    2  ( -0.000000, -0.000000, -0.000000 )     3.80106720
  WF centre and spread    3  ( -0.000000, -0.000000,  0.000000 )     3.57687230
  Sum of centres and spreads ( -0.000000, -0.000000, -0.000000 )    11.17900669

     18    -0.941E-12     0.0000157425       11.1790066865       3.24  <-- CONV
        O_D=      0.0000000 O_OD=      0.0210726 O_TOT=     11.1790067 <-- SPRD
 Delta: O_D= -0.2742460E-22 O_OD= -0.9419687E-12 O_TOT= -0.9414691E-12 <-- DLTA
 ------------------------------------------------------------------------------
 Cycle:     19
  WF centre and spread    1  ( -0.000000,  0.000000, -0.000000 )     3.80106720
  WF centre and spread    2  ( -0.000000, -0.000000, -0.000000 )     3.80106720
  WF centre and spread    3  ( -0.000000, -0.000000,  0.000000 )     3.57687230
  Sum of centres and spreads ( -0.000000, -0.000000, -0.000000 )    11.17900669

     19    -0.529E-12     0.0000157403       11.1790066865       3.27  <-- CONV
        O_D=      0.0000000 O_OD=      0.0210726 O_TOT=     11.1790067 <-- SPRD
 Delta: O_D= -0.8606214E-22 O_OD= -0.5294792E-12 O_TOT= -0.5293543E-12 <-- DLTA
 ------------------------------------------------------------------------------
 Cycle:     20
  WF centre and spread    1  ( -0.000000,  0.000000, -0.000000 )     3.80106720
  WF centre and spread    2  ( -0.000000, -0.000000, -0.000000 )     3.80106720
  WF centre and spread    3  ( -0.000000, -0.000000,  0.000000 )     3.57687230
  Sum of centres and spreads ( -0.000000, -0.000000, -0.000000 )    11.17900669

     20    -0.106E-11     0.0000157278       11.1790066865       3.29  <-- CONV
        O_D=      0.0000000 O_OD=      0.0210726 O_TOT=     11.1790067 <-- SPRD
 Delta: O_D= -0.1714443E-21 O_OD= -0.1056415E-11 O_TOT= -0.1056932E-11 <-- DLTA
 ------------------------------------------------------------------------------
 Cycle:     21
  WF centre and spread    1  ( -0.000000,  0.000000, -0.000000 )     3.80106720
  WF centre and spread    2  ( -0.000000, -0.000000, -0.000000 )     3.80106720
  WF centre and spread    3  ( -0.000000, -0.000000,  0.000000 )     3.57687230
  Sum of centres and spreads ( -0.000000, -0.000000, -0.000000 )    11.17900669

     21    -0.158E-11     0.0000157029       11.1790066865       3.32  <-- CONV
        O_D=      0.0000000 O_OD=      0.0210726 O_TOT=     11.1790067 <-- SPRD
 Delta: O_D= -0.2553330E-21 O_OD= -0.1578362E-11 O_TOT= -0.1577405E-11 <-- DLTA
 ------------------------------------------------------------------------------
 Cycle:     22
  WF centre and spread    1  ( -0.000000,  0.000000, -0.000000 )     3.80106719
  WF centre and spread    2  ( -0.000000, -0.000000, -0.000000 )     3.80106719
  WF centre and spread    3  ( -0.000000, -0.000000,  0.000000 )     3.57687230
  Sum of centres and spreads ( -0.000000, -0.000000, -0.000000 )    11.17900669

     22    -0.309E-09     0.0000156656       11.1790066862       3.36  <-- CONV
        O_D=      0.0000000 O_OD=      0.0210726 O_TOT=     11.1790067 <-- SPRD
 Delta: O_D=  0.3578557E-19 O_OD= -0.3089558E-09 O_TOT= -0.3089564E-09 <-- DLTA
 ------------------------------------------------------------------------------
 Cycle:     23
  WF centre and spread    1  ( -0.000000,  0.000000, -0.000000 )     3.80106719
  WF centre and spread    2  ( -0.000000, -0.000000, -0.000000 )     3.80106719
  WF centre and spread    3  ( -0.000000, -0.000000,  0.000000 )     3.57687230
  Sum of centres and spreads ( -0.000000, -0.000000, -0.000000 )    11.17900669

     23    -0.551E-12     0.0000160704       11.1790066862       3.39  <-- CONV
        O_D=      0.0000000 O_OD=      0.0210726 O_TOT=     11.1790067 <-- SPRD
 Delta: O_D= -0.2625125E-21 O_OD= -0.5517392E-12 O_TOT= -0.5506706E-12 <-- DLTA
 ------------------------------------------------------------------------------
 Cycle:     24
  WF centre and spread    1  ( -0.000000,  0.000000, -0.000000 )     3.80106719
  WF centre and spread    2  ( -0.000000, -0.000000, -0.000000 )     3.80106719
  WF centre and spread    3  ( -0.000000, -0.000000,  0.000000 )     3.57687230
  Sum of centres and spreads ( -0.000000, -0.000000, -0.000000 )    11.17900669

     24    -0.110E-11     0.0000160498       11.1790066861       3.41  <-- CONV
        O_D=      0.0000000 O_OD=      0.0210726 O_TOT=     11.1790067 <-- SPRD
 Delta: O_D= -0.5225136E-21 O_OD= -0.1099211E-11 O_TOT= -0.1099565E-11 <-- DLTA
 ------------------------------------------------------------------------------
 Cycle:     25
  WF centre and spread    1  ( -0.000000,  0.000000, -0.000000 )     3.80106719
  WF centre and spread    2  ( -0.000000, -0.000000, -0.000000 )     3.80106719
  WF centre and spread    3  ( -0.000000, -0.000000,  0.000000 )     3.57687231
  Sum of centres and spreads ( -0.000000, -0.000000, -0.000000 )    11.17900669

     25    -0.209E-09     0.0000160085       11.1790066859       3.45  <-- CONV
        O_D=      0.0000000 O_OD=      0.0210726 O_TOT=     11.1790067 <-- SPRD
 Delta: O_D= -0.5257998E-19 O_OD= -0.2093816E-09 O_TOT= -0.2093827E-09 <-- DLTA
 ------------------------------------------------------------------------------
 Cycle:     26
  WF centre and spread    1  ( -0.000000,  0.000000, -0.000000 )     3.80106719
  WF centre and spread    2  ( -0.000000, -0.000000, -0.000000 )     3.80106719
  WF centre and spread    3  ( -0.000000, -0.000000,  0.000000 )     3.57687231
  Sum of centres and spreads ( -0.000000, -0.000000, -0.000000 )    11.17900669

     26    -0.995E-13     0.0000089154       11.1790066859       3.48  <-- CONV
        O_D=      0.0000000 O_OD=      0.0210726 O_TOT=     11.1790067 <-- SPRD
 Delta: O_D=  0.3458263E-22 O_OD= -0.1006521E-12 O_TOT= -0.9947598E-13 <-- DLTA
 ------------------------------------------------------------------------------
 Cycle:     27
  WF centre and spread    1  ( -0.000000,  0.000000, -0.000000 )     3.80106719
  WF centre and spread    2  ( -0.000000, -0.000000, -0.000000 )     3.80106719
  WF centre and spread    3  ( -0.000000, -0.000000,  0.000000 )     3.57687231
  Sum of centres and spreads ( -0.000000, -0.000000, -0.000000 )    11.17900669

     27    -0.272E-12     0.0000089200       11.1790066859       3.51  <-- CONV
        O_D=      0.0000000 O_OD=      0.0210726 O_TOT=     11.1790067 <-- SPRD
 Delta: O_D= -0.6206595E-22 O_OD= -0.2707071E-12 O_TOT= -0.2717826E-12 <-- DLTA
 ------------------------------------------------------------------------------
 Cycle:     28
  WF centre and spread    1  ( -0.000000,  0.000000, -0.000000 )     3.80106719
  WF centre and spread    2  ( -0.000000, -0.000000, -0.000000 )     3.80106719
  WF centre and spread    3  ( -0.000000, -0.000000,  0.000000 )     3.57687231
  Sum of centres and spreads ( -0.000000, -0.000000, -0.000000 )    11.17900669

     28    -0.441E-12     0.0000089157       11.1790066859       3.53  <-- CONV
        O_D=      0.0000000 O_OD=      0.0210726 O_TOT=     11.1790067 <-- SPRD
 Delta: O_D= -0.1583815E-21 O_OD= -0.4404359E-12 O_TOT= -0.4405365E-12 <-- DLTA
 ------------------------------------------------------------------------------
 Cycle:     29
  WF centre and spread    1  ( -0.000000,  0.000000, -0.000000 )     3.80106719
  WF centre and spread    2  ( -0.000000, -0.000000, -0.000000 )     3.80106719
  WF centre and spread    3  ( -0.000000, -0.000000,  0.000000 )     3.57687231
  Sum of centres and spreads ( -0.000000, -0.000000, -0.000000 )    11.17900669

     29    -0.169E-12     0.0000089026       11.1790066859       3.56  <-- CONV
        O_D=      0.0000000 O_OD=      0.0210726 O_TOT=     11.1790067 <-- SPRD
 Delta: O_D= -0.9602172E-22 O_OD= -0.1696525E-12 O_TOT= -0.1687539E-12 <-- DLTA
 ------------------------------------------------------------------------------
 Cycle:     30
  WF centre and spread    1  ( -0.000000,  0.000000, -0.000000 )     3.80106719
  WF centre and spread    2  ( -0.000000, -0.000000, -0.000000 )     3.80106719
  WF centre and spread    3  ( -0.000000, -0.000000,  0.000000 )     3.57687231
  Sum of centres and spreads ( -0.000000, -0.000000, -0.000000 )    11.17900669

     30    -0.338E-12     0.0000088938       11.1790066859       3.58  <-- CONV
        O_D=      0.0000000 O_OD=      0.0210726 O_TOT=     11.1790067 <-- SPRD
 Delta: O_D= -0.1912159E-21 O_OD= -0.3379311E-12 O_TOT= -0.3375078E-12 <-- DLTA
 ------------------------------------------------------------------------------

             <<<     Delta < 1.000E-12  over  5 iterations     >>>
             <<< Wannierisation convergence criteria satisfied >>>

 Final State
  WF centre and spread    1  ( -0.000000,  0.000000, -0.000000 )     3.80106719
  WF centre and spread    2  ( -0.000000, -0.000000, -0.000000 )     3.80106719
  WF centre and spread    3  ( -0.000000, -0.000000,  0.000000 )     3.57687231
  Sum of centres and spreads ( -0.000000, -0.000000, -0.000000 )    11.17900669

         Spreads (Ang^2)       Omega I      =    11.157934122
        ================       Omega D      =     0.000000000
                               Omega OD     =     0.021072564
    Final Spread (Ang^2)       Omega Total  =    11.179006686
 ------------------------------------------------------------------------------
 Time for wannierise            1.035 (sec)

 Writing checkpoint file sro.chk... done

 *---------------------------------------------------------------------------*
 |                               PLOTTING                                    |
 *---------------------------------------------------------------------------*


 Calculating interpolated band-structure

 Time to calculate interpolated band structure       0.476 (sec)

 Time for plotting             43.421 (sec)
 Total Execution Time          54.444 (sec)

 *===========================================================================*
 |                             TIMING INFORMATION                            |
 *===========================================================================*
 |    Tag                                                Ncalls      Time (s)|
 |---------------------------------------------------------------------------|
 |kmesh: get                                        :         1         6.705|
 |overlap: allocate                                 :         1         0.000|
 |overlap: read                                     :         1         0.606|
 |dis: main                                         :         1         2.564|
 |wann: main                                        :         1         1.035|
 |plot: main                                        :         1        43.421|
 *---------------------------------------------------------------------------*

 All done: wannier90 exiting
