 written on  1Jul2021 at 17:37:25 
           3
        1879
    4    4    1    2    1    2    1    2    1    2    1    2    2    1    1
    2    1    2    2    1    2    1    2    1    2    1    2    1    4    2
    1    4    1    1    1    2    1    1    1    2    1    1    1    2    2
    1    1    1    1    2    1    1    1    1    2    1    1    1    1    2
    1    1    1    2    2    1    1    1    2    1    1    1    2    1    1
    1    2    1    1    1    2    1    2    4    2    1    2    1    1    1
    4    1    1    1    1    1    2    2    1    1    1    1    1    1    2
    1    1    1    1    1    1    2    1    1    1    1    1    1    2    1
    1    1    1    1    1    2    1    1    1    1    1    1    2    1    1
    1    1    1    2    2    1    1    1    1    1    2    1    1    1    1
    1    2    1    1    1    1    1    2    1    1    1    2    2    1    2
    4    2    1    2    1    1    1    2    2    1    1    1    1    1    1
    4    1    1    1    1    1    1    1    1    2    1    1    1    1    1
    1    1    1    2    1    1    1    1    1    1    1    1    2    1    1
    1    1    1    1    1    1    2    1    1    1    1    1    1    1    1
    2    1    1    1    1    1    1    1    1    2    1    1    1    1    1
    1    1    2    2    1    1    1    1    1    1    1    2    1    1    1
    1    1    1    1    2    1    1    1    1    1    2    2    1    1    1
    2    2    1    2    4    2    1    2    2    1    1    1    1    2    1
    1    1    1    1    1    2    1    1    1    1    1    1    1    1    4
    1    1    1    1    1    1    1    1    1    1    2    1    1    1    1
    1    1    1    1    1    1    2    1    1    1    1    1    1    1    1
    1    1    2    1    1    1    1    1    1    1    1    1    1    2    1
    1    1    1    1    1    1    1    1    1    2    1    1    1    1    1
    1    1    1    1    1    2    1    1    1    1    1    1    1    1    1
    2    2    1    1    1    1    1    1    1    1    1    2    1    1    1
    1    1    1    1    2    2    1    1    1    1    1    2    2    1    1
    1    2    2    1    2    4    4    2    1    1    2    1    1    1    1
    2    1    1    1    1    1    1    2    1    1    1    1    1    1    1
    1    2    1    1    1    1    1    1    1    1    1    1    1    1    1
    1    1    1    1    1    1    1    1    1    1    1    1    1    1    1
    1    1    1    1    1    1    1    1    1    1    1    1    1    1    1
    1    1    1    1    1    1    1    1    1    1    1    1    1    1    1
    1    1    1    1    1    1    1    1    1    1    1    1    1    1    1
    1    1    1    1    1    1    1    1    1    4    1    1    1    1    1
    1    1    1    1    1    1    4    1    1    1    1    1    1    1    1
    1    2    1    1    1    1    1    1    1    2    1    1    1    1    1
    2    1    1    1    2    1    2    2    1    2    2    1    1    1    1
    2    1    1    1    1    1    1    2    1    1    1    1    1    1    1
    1    2    1    1    1    1    1    1    1    1    1    1    1    1    1
    1    1    1    1    1    1    1    1    1    1    1    1    1    1    1
    1    1    1    1    1    1    1    1    1    1    1    1    1    1    1
    1    1    1    1    1    1    1    1    1    1    1    1    1    1    1
    1    1    1    1    1    1    1    1    1    1    1    1    2    1    1
    1    1    1    1    1    1    1    1    1    2    1    1    1    1    1
    1    1    1    1    1    1    1    2    1    1    1    1    1    1    1
    1    1    2    1    1    1    1    1    1    1    2    1    1    1    1
    1    2    1    1    1    2    1    2    2    1    2    1    1    1    2
    2    1    1    1    1    1    1    2    1    1    1    1    1    1    1
    1    2    1    1    1    1    1    1    1    1    1    1    1    1    1
    1    1    1    1    1    1    1    1    1    1    1    1    1    1    1
    1    1    1    1    1    1    1    1    1    1    1    1    1    1    1
    1    1    1    1    1    1    1    1    1    1    1    1    1    1    1
    2    1    1    1    1    1    1    1    1    1    1    1    2    1    1
    1    1    1    1    1    1    1    1    1    1    1    1    1    1    1
    1    1    1    1    1    1    1    1    1    1    1    1    1    1    1
    1    1    2    2    1    1    1    1    1    1    1    2    1    1    1
    1    1    2    1    1    1    2    1    2    2    1    2    1    1    1
    2    1    1    1    1    1    2    2    1    1    1    1    1    1    1
    1    2    1    1    1    1    1    1    1    1    1    1    1    1    1
    1    1    1    1    1    1    1    1    1    1    1    1    1    1    1
    1    1    1    1    1    1    1    1    1    1    1    1    1    1    1
    1    1    1    2    1    1    1    1    1    1    1    1    1    1    1
    2    1    1    1    1    1    1    1    1    1    1    1    1    1    1
    1    1    1    1    1    1    1    1    1    1    1    1    1    1    1
    1    1    1    1    1    1    1    1    1    1    1    1    1    1    1
    1    1    2    1    1    1    1    1    1    1    1    2    2    1    1
    1    1    1    2    1    1    1    2    1    2    2    1    2    1    1
    1    2    1    1    1    1    1    2    1    1    1    1    1    1    1
    2    2    1    1    1    1    1    1    1    1    1    1    1    1    1
    1    1    1    1    1    1    1    1    1    1    1    1    1    1    1
    1    1    1    1    1    1    2    1    1    1    1    1    1    1    1
    1    1    1    2    1    1    1    1    1    1    1    1    1    1    1
    1    1    1    1    1    1    1    1    1    1    1    1    1    1    1
    1    1    1    1    1    1    1    1    1    1    1    1    1    1    1
    1    1    1    1    1    1    1    1    1    1    1    1    1    1    1
    1    1    2    1    1    1    1    1    1    1    1    2    1    1    1
    1    1    1    2    2    1    1    1    2    1    2    2    1    2    1
    1    1    2    1    1    1    1    1    2    1    1    1    1    1    1
    1    2    1    1    1    1    1    1    1    1    1    2    1    1    1
    1    1    1    1    1    1    1    1    1    2    1    1    1    1    1
    1    1    1    1    1    1    2    1    1    1    1    1    1    1    1
    1    1    1    1    1    1    1    1    1    1    1    1    1    1    1
    1    1    1    1    1    1    1    1    1    1    1    1    1    1    1
    1    1    1    1    1    1    1    1    1    1    1    1    1    1    1
    1    1    1    1    1    1    1    1    1    1    1    1    1    1    1
    1    1    2    1    1    1    1    1    1    1    1    2    1    1    1
    1    1    1    2    1    1    1    1    2    2    1    2    2    1    2
    1    1    1    2    1    1    1    1    1    2    1    1    1    1    1
    1    1    2    1    1    1    1    1    1    1    1    1    4    1    1
    1    1    1    1    1    1    1    1    1    4    1    1    1    1    1
    1    1    1    1    1    1    1    1    1    1    1    1    1    1    1
    1    1    1    1    1    1    1    1    1    1    1    1    1    1    1
    1    1    1    1    1    1    1    1    1    1    1    1    1    1    1
    1    1    1    1    1    1    1    1    1    1    1    1    1    1    1
    1    1    1    1    1    1    1    1    1    1    1    1    1    1    1
    1    1    2    1    1    1    1    1    1    1    1    2    1    1    1
    1    1    1    2    1    1    1    1    2    1    1    2    4    4    2
    1    2    2    1    1    1    2    2    1    1    1    1    1    2    2
    1    1    1    1    1    1    1    2    1    1    1    1    1    1    1
    1    1    2    2    1    1    1    1    1    1    1    1    1    2    1
    1    1    1    1    1    1    1    1    1    2    1    1    1    1    1
    1    1    1    1    1    2    1    1    1    1    1    1    1    1    1
    1    2    1    1    1    1    1    1    1    1    1    1    2    1    1
    1    1    1    1    1    1    1    1    2    1    1    1    1    1    1
    1    1    1    1    4    1    1    1    1    1    1    1    1    2    1
    1    1    1    1    1    2    1    1    1    1    2    2    1    2    4
    2    1    2    2    1    1    1    2    2    1    1    1    1    1    2
    1    1    1    1    1    1    1    2    1    1    1    1    1    1    1
    2    2    1    1    1    1    1    1    1    2    1    1    1    1    1
    1    1    1    2    1    1    1    1    1    1    1    1    2    1    1
    1    1    1    1    1    1    2    1    1    1    1    1    1    1    1
    2    1    1    1    1    1    1    1    1    2    1    1    1    1    1
    1    1    1    4    1    1    1    1    1    1    2    2    1    1    1
    2    1    2    4    2    1    2    2    1    1    1    2    1    1    1
    1    1    2    1    1    1    1    1    2    1    1    1    1    1    2
    2    1    1    1    1    1    2    1    1    1    1    1    1    2    1
    1    1    1    1    1    2    1    1    1    1    1    1    2    1    1
    1    1    1    1    2    1    1    1    1    1    1    2    2    1    1
    1    1    1    4    1    1    1    2    1    2    4    2    1    2    1
    1    1    2    1    1    1    2    1    1    1    2    1    1    1    2
    2    1    1    1    2    1    1    1    1    2    1    1    1    1    2
    1    1    1    1    2    2    1    1    1    2    1    1    1    2    1
    1    1    4    1    2    4    1    2    1    2    1    2    1    2    1
    2    2    1    2    1    1    2    2    1    2    1    2    1    2    1
    2    1    4    4
   -9   -3   -6    1    1    0.000000   -0.000000
   -9   -3   -6    2    1   -0.000000   -0.000000
   -9   -3   -6    3    1    0.000000   -0.000000
   -9   -3   -6    1    2   -0.000000   -0.000000
   -9   -3   -6    2    2    0.000000   -0.000000
   -9   -3   -6    3    2   -0.000000   -0.000000
   -9   -3   -6    1    3    0.000000   -0.000000
   -9   -3   -6    2    3   -0.000000   -0.000000
   -9   -3   -6    3    3    0.000000   -0.000000
   -8   -8  -12    1    1   -0.000000   -0.000000
   -8   -8  -12    2    1   -0.000000   -0.000000
   -8   -8  -12    3    1    0.000000   -0.000000
   -8   -8  -12    1    2   -0.000000    0.000000
   -8   -8  -12    2    2   -0.000000    0.000000
   -8   -8  -12    3    2    0.000000   -0.000000
   -8   -8  -12    1    3    0.000000    0.000000
   -8   -8  -12    2    3    0.000000   -0.000000
   -8   -8  -12    3    3   -0.000000   -0.000000
   -8   -8  -11    1    1   -0.000000    0.000000
   -8   -8  -11    2    1    0.000000   -0.000000
   -8   -8  -11    3    1   -0.000000   -0.000000
   -8   -8  -11    1    2    0.000000   -0.000000
   -8   -8  -11    2    2   -0.000000    0.000000
   -8   -8  -11    3    2   -0.000000   -0.000000
   -8   -8  -11    1    3   -0.000000    0.000000
   -8   -8  -11    2    3   -0.000000    0.000000
   -8   -8  -11    3    3    0.000000   -0.000000
   -8   -7  -11    1    1   -0.000000   -0.000000
   -8   -7  -11    2    1   -0.000000   -0.000000
   -8   -7  -11    3    1    0.000000   -0.000000
   -8   -7  -11    1    2   -0.000000   -0.000000
   -8   -7  -11    2    2   -0.000000    0.000000
   -8   -7  -11    3    2    0.000000   -0.000000
   -8   -7  -11    1    3    0.000000    0.000000
   -8   -7  -11    2    3    0.000000   -0.000000
   -8   -7  -11    3    3   -0.000000    0.000000
   -8   -7  -10    1    1   -0.000000    0.000000
   -8   -7  -10    2    1   -0.000000   -0.000000
   -8   -7  -10    3    1    0.000000   -0.000000
   -8   -7  -10    1    2   -0.000000   -0.000000
   -8   -7  -10    2    2   -0.000000   -0.000000
   -8   -7  -10    3    2    0.000000    0.000000
   -8   -7  -10    1    3    0.000000    0.000000
   -8   -7  -10    2    3    0.000000    0.000000
   -8   -7  -10    3    3   -0.000000   -0.000000
   -8   -6  -10    1    1   -0.000000    0.000000
   -8   -6  -10    2    1    0.000000   -0.000000
   -8   -6  -10    3    1    0.000000   -0.000000
   -8   -6  -10    1    2    0.000000   -0.000000
   -8   -6  -10    2    2   -0.000000   -0.000000
   -8   -6  -10    3    2    0.000000   -0.000000
   -8   -6  -10    1    3    0.000000    0.000000
   -8   -6  -10    2    3    0.000000    0.000000
   -8   -6  -10    3    3    0.000000    0.000000
   -8   -6   -9    1    1   -0.000000    0.000000
   -8   -6   -9    2    1   -0.000000   -0.000000
   -8   -6   -9    3    1    0.000000    0.000000
   -8   -6   -9    1    2   -0.000000   -0.000000
   -8   -6   -9    2    2   -0.000000   -0.000000
   -8   -6   -9    3    2    0.000000    0.000000
   -8   -6   -9    1    3    0.000000    0.000000
   -8   -6   -9    2    3    0.000000   -0.000000
   -8   -6   -9    3    3   -0.000000   -0.000000
   -8   -5   -9    1    1   -0.000000    0.000000
   -8   -5   -9    2    1    0.000000    0.000000
   -8   -5   -9    3    1    0.000000   -0.000000
   -8   -5   -9    1    2    0.000000    0.000000
   -8   -5   -9    2    2   -0.000000   -0.000000
   -8   -5   -9    3    2    0.000000   -0.000000
   -8   -5   -9    1    3    0.000000    0.000000
   -8   -5   -9    2    3    0.000000    0.000000
   -8   -5   -9    3    3    0.000000    0.000000
   -8   -5   -8    1    1    0.000000    0.000000
   -8   -5   -8    2    1    0.000000   -0.000000
   -8   -5   -8    3    1    0.000000    0.000000
   -8   -5   -8    1    2    0.000000    0.000000
   -8   -5   -8    2    2   -0.000000   -0.000000
   -8   -5   -8    3    2    0.000000    0.000000
   -8   -5   -8    1    3    0.000000    0.000000
   -8   -5   -8    2    3    0.000000   -0.000000
   -8   -5   -8    3    3   -0.000000   -0.000000
   -8   -4   -8    1    1   -0.000000    0.000000
   -8   -4   -8    2    1    0.000000    0.000000
   -8   -4   -8    3    1    0.000000   -0.000000
   -8   -4   -8    1    2    0.000000   -0.000000
   -8   -4   -8    2    2    0.000000   -0.000000
   -8   -4   -8    3    2    0.000000   -0.000000
   -8   -4   -8    1    3    0.000000    0.000000
   -8   -4   -8    2    3    0.000000    0.000000
   -8   -4   -8    3    3    0.000000    0.000000
   -8   -4   -7    1    1   -0.000000   -0.000000
   -8   -4   -7    2    1   -0.000000   -0.000000
   -8   -4   -7    3    1    0.000000    0.000000
   -8   -4   -7    1    2   -0.000000   -0.000000
   -8   -4   -7    2    2   -0.000000    0.000000
   -8   -4   -7    3    2    0.000000    0.000000
   -8   -4   -7    1    3    0.000000    0.000000
   -8   -4   -7    2    3    0.000000   -0.000000
   -8   -4   -7    3    3   -0.000000   -0.000000
   -8   -4   -6    1    1    0.000000    0.000000
   -8   -4   -6    2    1   -0.000000   -0.000000
   -8   -4   -6    3    1   -0.000000   -0.000000
   -8   -4   -6    1    2   -0.000000    0.000000
   -8   -4   -6    2    2    0.000000    0.000000
   -8   -4   -6    3    2   -0.000000   -0.000000
   -8   -4   -6    1    3   -0.000000   -0.000000
   -8   -4   -6    2    3   -0.000000   -0.000000
   -8   -4   -6    3    3   -0.000000   -0.000000
   -8   -3   -7    1    1   -0.000000    0.000000
   -8   -3   -7    2    1   -0.000000    0.000000
   -8   -3   -7    3    1    0.000000   -0.000000
   -8   -3   -7    1    2   -0.000000    0.000000
   -8   -3   -7    2    2    0.000000   -0.000000
   -8   -3   -7    3    2    0.000000    0.000000
   -8   -3   -7    1    3   -0.000000    0.000000
   -8   -3   -7    2    3    0.000000   -0.000000
   -8   -3   -7    3    3   -0.000000    0.000000
   -8   -3   -6    1    1   -0.000000   -0.000000
   -8   -3   -6    2    1    0.000000   -0.000000
   -8   -3   -6    3    1   -0.000000    0.000000
   -8   -3   -6    1    2    0.000000    0.000000
   -8   -3   -6    2    2    0.000000    0.000000
   -8   -3   -6    3    2    0.000000    0.000000
   -8   -3   -6    1    3   -0.000000    0.000000
   -8   -3   -6    2    3    0.000000    0.000000
   -8   -3   -6    3    3   -0.000000   -0.000000
   -8   -3   -5    1    1   -0.000000    0.000000
   -8   -3   -5    2    1   -0.000000   -0.000000
   -8   -3   -5    3    1   -0.000000   -0.000000
   -8   -3   -5    1    2   -0.000000   -0.000000
   -8   -3   -5    2    2   -0.000000   -0.000000
   -8   -3   -5    3    2   -0.000000   -0.000000
   -8   -3   -5    1    3   -0.000000   -0.000000
   -8   -3   -5    2    3   -0.000000   -0.000000
   -8   -3   -5    3    3   -0.000000   -0.000000
   -8   -2   -6    1    1   -0.000000   -0.000000
   -8   -2   -6    2    1   -0.000000    0.000000
   -8   -2   -6    3    1   -0.000000   -0.000000
   -8   -2   -6    1    2   -0.000000    0.000000
   -8   -2   -6    2    2    0.000001   -0.000000
   -8   -2   -6    3    2   -0.000000    0.000000
   -8   -2   -6    1    3   -0.000000    0.000000
   -8   -2   -6    2    3   -0.000000   -0.000000
   -8   -2   -6    3    3   -0.000000   -0.000000
   -8   -2   -5    1    1   -0.000000   -0.000000
   -8   -2   -5    2    1   -0.000000   -0.000000
   -8   -2   -5    3    1   -0.000000    0.000000
   -8   -2   -5    1    2   -0.000000   -0.000000
   -8   -2   -5    2    2    0.000000    0.000000
   -8   -2   -5    3    2   -0.000000    0.000000
   -8   -2   -5    1    3   -0.000000    0.000000
   -8   -2   -5    2    3   -0.000000    0.000000
   -8   -2   -5    3    3   -0.000000    0.000000
   -8   -2   -4    1    1    0.000000    0.000000
   -8   -2   -4    2    1    0.000000    0.000000
   -8   -2   -4    3    1   -0.000000   -0.000000
   -8   -2   -4    1    2    0.000000   -0.000000
   -8   -2   -4    2    2    0.000000   -0.000000
   -8   -2   -4    3    2    0.000000   -0.000000
   -8   -2   -4    1    3   -0.000000   -0.000000
   -8   -2   -4    2    3    0.000000    0.000000
   -8   -2   -4    3    3   -0.000000   -0.000000
   -8   -1   -5    1    1   -0.000000   -0.000000
   -8   -1   -5    2    1   -0.000000   -0.000000
   -8   -1   -5    3    1   -0.000000   -0.000000
   -8   -1   -5    1    2   -0.000000    0.000000
   -8   -1   -5    2    2    0.000000   -0.000000
   -8   -1   -5    3    2   -0.000000    0.000000
   -8   -1   -5    1    3   -0.000000    0.000000
   -8   -1   -5    2    3   -0.000000   -0.000000
   -8   -1   -5    3    3   -0.000000    0.000000
   -8   -1   -4    1    1   -0.000000    0.000000
   -8   -1   -4    2    1    0.000000   -0.000000
   -8   -1   -4    3    1    0.000000   -0.000000
   -8   -1   -4    1    2    0.000000    0.000000
   -8   -1   -4    2    2   -0.000000   -0.000000
   -8   -1   -4    3    2   -0.000000    0.000000
   -8   -1   -4    1    3    0.000000    0.000000
   -8   -1   -4    2    3   -0.000000    0.000000
   -8   -1   -4    3    3   -0.000000    0.000000
   -8    0   -4    1    1   -0.000000   -0.000000
   -8    0   -4    2    1    0.000000    0.000000
   -8    0   -4    3    1   -0.000000   -0.000000
   -8    0   -4    1    2    0.000000   -0.000000
   -8    0   -4    2    2    0.000000   -0.000000
   -8    0   -4    3    2   -0.000000    0.000000
   -8    0   -4    1    3   -0.000000    0.000000
   -8    0   -4    2    3   -0.000000   -0.000000
   -8    0   -4    3    3    0.000000    0.000000
   -8    0   -3    1    1    0.000000    0.000000
   -8    0   -3    2    1   -0.000000   -0.000000
   -8    0   -3    3    1    0.000000   -0.000000
   -8    0   -3    1    2   -0.000000   -0.000000
   -8    0   -3    2    2   -0.000000   -0.000000
   -8    0   -3    3    2   -0.000000   -0.000000
   -8    0   -3    1    3    0.000000    0.000000
   -8    0   -3    2    3   -0.000000    0.000000
   -8    0   -3    3    3   -0.000000    0.000000
   -8    1   -3    1    1   -0.000000   -0.000000
   -8    1   -3    2    1    0.000000   -0.000000
   -8    1   -3    3    1   -0.000000   -0.000000
   -8    1   -3    1    2    0.000000    0.000000
   -8    1   -3    2    2   -0.000000    0.000000
   -8    1   -3    3    2   -0.000000    0.000000
   -8    1   -3    1    3   -0.000000    0.000000
   -8    1   -3    2    3   -0.000000   -0.000000
   -8    1   -3    3    3    0.000000    0.000000
   -8    1   -2    1    1   -0.000000    0.000000
   -8    1   -2    2    1    0.000000   -0.000000
   -8    1   -2    3    1    0.000000   -0.000000
   -8    1   -2    1    2    0.000000    0.000000
   -8    1   -2    2    2   -0.000000   -0.000000
   -8    1   -2    3    2   -0.000000    0.000000
   -8    1   -2    1    3    0.000000    0.000000
   -8    1   -2    2    3   -0.000000    0.000000
   -8    1   -2    3    3   -0.000000    0.000000
   -8    2   -2    1    1   -0.000000   -0.000000
   -8    2   -2    2    1    0.000000    0.000000
   -8    2   -2    3    1   -0.000000   -0.000000
   -8    2   -2    1    2    0.000000    0.000000
   -8    2   -2    2    2   -0.000000    0.000000
   -8    2   -2    3    2   -0.000000   -0.000000
   -8    2   -2    1    3   -0.000000    0.000000
   -8    2   -2    2    3   -0.000000    0.000000
   -8    2   -2    3    3    0.000000   -0.000000
   -8    2   -1    1    1   -0.000000    0.000000
   -8    2   -1    2    1    0.000000   -0.000000
   -8    2   -1    3    1    0.000000   -0.000000
   -8    2   -1    1    2    0.000000   -0.000000
   -8    2   -1    2    2   -0.000000   -0.000000
   -8    2   -1    3    2   -0.000000   -0.000000
   -8    2   -1    1    3    0.000000    0.000000
   -8    2   -1    2    3   -0.000000    0.000000
   -8    2   -1    3    3   -0.000000    0.000000
   -8    3   -1    1    1   -0.000000   -0.000000
   -8    3   -1    2    1    0.000000   -0.000000
   -8    3   -1    3    1   -0.000000   -0.000000
   -8    3   -1    1    2    0.000000    0.000000
   -8    3   -1    2    2   -0.000000    0.000000
   -8    3   -1    3    2   -0.000000   -0.000000
   -8    3   -1    1    3   -0.000000    0.000000
   -8    3   -1    2    3   -0.000000   -0.000000
   -8    3   -1    3    3   -0.000000   -0.000000
   -8    3    0    1    1   -0.000000    0.000000
   -8    3    0    2    1   -0.000000   -0.000000
   -8    3    0    3    1   -0.000000   -0.000000
   -8    3    0    1    2   -0.000000   -0.000000
   -8    3    0    2    2   -0.000000    0.000000
   -8    3    0    3    2    0.000000    0.000000
   -8    3    0    1    3   -0.000000    0.000000
   -8    3    0    2    3    0.000000    0.000000
   -8    3    0    3    3    0.000000    0.000000
   -8    4    0    1    1   -0.000000   -0.000000
   -8    4    0    2    1   -0.000000   -0.000000
   -8    4    0    3    1    0.000000   -0.000000
   -8    4    0    1    2   -0.000000    0.000000
   -8    4    0    2    2   -0.000000    0.000000
   -8    4    0    3    2    0.000000   -0.000000
   -8    4    0    1    3    0.000000    0.000000
   -8    4    0    2    3    0.000000   -0.000000
   -8    4    0    3    3   -0.000000   -0.000000
   -7   -8  -11    1    1   -0.000000    0.000000
   -7   -8  -11    2    1   -0.000000    0.000000
   -7   -8  -11    3    1    0.000000   -0.000000
   -7   -8  -11    1    2   -0.000000   -0.000000
   -7   -8  -11    2    2   -0.000000    0.000000
   -7   -8  -11    3    2    0.000000   -0.000000
   -7   -8  -11    1    3    0.000000    0.000000
   -7   -8  -11    2    3    0.000000   -0.000000
   -7   -8  -11    3    3   -0.000000   -0.000000
   -7   -8  -10    1    1   -0.000000   -0.000000
   -7   -8  -10    2    1   -0.000000    0.000000
   -7   -8  -10    3    1    0.000000   -0.000000
   -7   -8  -10    1    2   -0.000000    0.000000
   -7   -8  -10    2    2   -0.000000    0.000000
   -7   -8  -10    3    2    0.000000   -0.000000
   -7   -8  -10    1    3    0.000000    0.000000
   -7   -8  -10    2    3    0.000000    0.000000
   -7   -8  -10    3    3   -0.000000    0.000000
   -7   -7  -12    1    1   -0.000000   -0.000000
   -7   -7  -12    2    1    0.000000   -0.000000
   -7   -7  -12    3    1   -0.000000   -0.000000
   -7   -7  -12    1    2    0.000000    0.000000
   -7   -7  -12    2    2   -0.000000    0.000000
   -7   -7  -12    3    2   -0.000000   -0.000000
   -7   -7  -12    1    3   -0.000000    0.000000
   -7   -7  -12    2    3   -0.000000    0.000000
   -7   -7  -12    3    3   -0.000003   -0.000000
   -7   -7  -11    1    1   -0.000000   -0.000000
   -7   -7  -11    2    1   -0.000000   -0.000000
   -7   -7  -11    3    1    0.000000    0.000000
   -7   -7  -11    1    2   -0.000000    0.000000
   -7   -7  -11    2    2   -0.000000    0.000000
   -7   -7  -11    3    2    0.000000   -0.000000
   -7   -7  -11    1    3    0.000000    0.000000
   -7   -7  -11    2    3    0.000000    0.000000
   -7   -7  -11    3    3   -0.000001    0.000000
   -7   -7  -10    1    1   -0.000000    0.000000
   -7   -7  -10    2    1   -0.000000    0.000000
   -7   -7  -10    3    1    0.000000   -0.000000
   -7   -7  -10    1    2   -0.000000    0.000000
   -7   -7  -10    2    2   -0.000000   -0.000000
   -7   -7  -10    3    2    0.000000   -0.000000
   -7   -7  -10    1    3    0.000000    0.000000
   -7   -7  -10    2    3    0.000000   -0.000000
   -7   -7  -10    3    3    0.000000   -0.000000
   -7   -7   -9    1    1   -0.000000   -0.000000
   -7   -7   -9    2    1   -0.000000    0.000000
   -7   -7   -9    3    1    0.000000   -0.000000
   -7   -7   -9    1    2   -0.000000    0.000000
   -7   -7   -9    2    2   -0.000000   -0.000000
   -7   -7   -9    3    2    0.000000    0.000000
   -7   -7   -9    1    3    0.000000    0.000000
   -7   -7   -9    2    3    0.000000    0.000000
   -7   -7   -9    3    3    0.000000   -0.000000
   -7   -6  -11    1    1   -0.000000   -0.000000
   -7   -6  -11    2    1    0.000000   -0.000000
   -7   -6  -11    3    1   -0.000000   -0.000000
   -7   -6  -11    1    2    0.000000   -0.000000
   -7   -6  -11    2    2   -0.000000   -0.000000
   -7   -6  -11    3    2    0.000000   -0.000000
   -7   -6  -11    1    3   -0.000000    0.000000
   -7   -6  -11    2    3    0.000000    0.000000
   -7   -6  -11    3    3   -0.000002    0.000000
   -7   -6  -10    1    1   -0.000000   -0.000000
   -7   -6  -10    2    1   -0.000000    0.000000
   -7   -6  -10    3    1    0.000000    0.000000
   -7   -6  -10    1    2   -0.000000    0.000000
   -7   -6  -10    2    2   -0.000000   -0.000000
   -7   -6  -10    3    2    0.000000   -0.000000
   -7   -6  -10    1    3    0.000000    0.000000
   -7   -6  -10    2    3    0.000000   -0.000000
   -7   -6  -10    3    3   -0.000000    0.000000
   -7   -6   -9    1    1   -0.000000   -0.000000
   -7   -6   -9    2    1   -0.000000    0.000000
   -7   -6   -9    3    1    0.000000   -0.000000
   -7   -6   -9    1    2   -0.000000    0.000000
   -7   -6   -9    2    2   -0.000000   -0.000000
   -7   -6   -9    3    2    0.000000   -0.000000
   -7   -6   -9    1    3    0.000000    0.000000
   -7   -6   -9    2    3    0.000000    0.000000
   -7   -6   -9    3    3    0.000000    0.000000
   -7   -6   -8    1    1   -0.000000    0.000000
   -7   -6   -8    2    1   -0.000000   -0.000000
   -7   -6   -8    3    1    0.000000   -0.000000
   -7   -6   -8    1    2   -0.000000   -0.000000
   -7   -6   -8    2    2   -0.000000   -0.000000
   -7   -6   -8    3    2    0.000000    0.000000
   -7   -6   -8    1    3    0.000000    0.000000
   -7   -6   -8    2    3    0.000000   -0.000000
   -7   -6   -8    3    3    0.000000    0.000000
   -7   -5  -10    1    1    0.000000   -0.000000
   -7   -5  -10    2    1   -0.000000   -0.000000
   -7   -5  -10    3    1    0.000000   -0.000000
   -7   -5  -10    1    2   -0.000000   -0.000000
   -7   -5  -10    2    2    0.000000   -0.000000
   -7   -5  -10    3    2    0.000001    0.000000
   -7   -5  -10    1    3    0.000000    0.000000
   -7   -5  -10    2    3    0.000001    0.000000
   -7   -5  -10    3    3    0.000001    0.000000
   -7   -5   -9    1    1    0.000000    0.000000
   -7   -5   -9    2    1   -0.000000    0.000000
   -7   -5   -9    3    1    0.000000    0.000000
   -7   -5   -9    1    2   -0.000000   -0.000000
   -7   -5   -9    2    2    0.000000   -0.000000
   -7   -5   -9    3    2    0.000000   -0.000000
   -7   -5   -9    1    3    0.000000    0.000000
   -7   -5   -9    2    3    0.000000   -0.000000
   -7   -5   -9    3    3    0.000001   -0.000000
   -7   -5   -8    1    1   -0.000000   -0.000000
   -7   -5   -8    2    1   -0.000000   -0.000000
   -7   -5   -8    3    1    0.000000   -0.000000
   -7   -5   -8    1    2   -0.000000    0.000000
   -7   -5   -8    2    2   -0.000000    0.000000
   -7   -5   -8    3    2    0.000000   -0.000000
   -7   -5   -8    1    3    0.000000    0.000000
   -7   -5   -8    2    3    0.000000    0.000000
   -7   -5   -8    3    3    0.000000    0.000000
   -7   -5   -7    1    1   -0.000000    0.000000
   -7   -5   -7    2    1   -0.000000   -0.000000
   -7   -5   -7    3    1    0.000000   -0.000000
   -7   -5   -7    1    2   -0.000000    0.000000
   -7   -5   -7    2    2   -0.000000    0.000000
   -7   -5   -7    3    2    0.000000    0.000000
   -7   -5   -7    1    3    0.000000    0.000000
   -7   -5   -7    2    3    0.000000   -0.000000
   -7   -5   -7    3    3    0.000000   -0.000000
   -7   -5   -6    1    1   -0.000000    0.000000
   -7   -5   -6    2    1   -0.000000   -0.000000
   -7   -5   -6    3    1    0.000000   -0.000000
   -7   -5   -6    1    2   -0.000000    0.000000
   -7   -5   -6    2    2   -0.000000   -0.000000
   -7   -5   -6    3    2    0.000000    0.000000
   -7   -5   -6    1    3    0.000000   -0.000000
   -7   -5   -6    2    3    0.000000   -0.000000
   -7   -5   -6    3    3    0.000000   -0.000000
   -7   -4   -9    1    1   -0.000000   -0.000000
   -7   -4   -9    2    1   -0.000000    0.000000
   -7   -4   -9    3    1   -0.000000   -0.000000
   -7   -4   -9    1    2   -0.000000   -0.000000
   -7   -4   -9    2    2    0.000001    0.000000
   -7   -4   -9    3    2    0.000001    0.000000
   -7   -4   -9    1    3    0.000000    0.000000
   -7   -4   -9    2    3    0.000001    0.000000
   -7   -4   -9    3    3    0.000003    0.000000
   -7   -4   -8    1    1    0.000000    0.000000
   -7   -4   -8    2    1    0.000000   -0.000000
   -7   -4   -8    3    1    0.000000    0.000000
   -7   -4   -8    1    2    0.000000    0.000000
   -7   -4   -8    2    2    0.000001   -0.000000
   -7   -4   -8    3    2    0.000001    0.000000
   -7   -4   -8    1    3    0.000000    0.000000
   -7   -4   -8    2    3    0.000001   -0.000000
   -7   -4   -8    3    3    0.000000   -0.000000
   -7   -4   -7    1    1   -0.000000   -0.000000
   -7   -4   -7    2    1   -0.000000   -0.000000
   -7   -4   -7    3    1    0.000000   -0.000000
   -7   -4   -7    1    2   -0.000000   -0.000000
   -7   -4   -7    2    2   -0.000000    0.000000
   -7   -4   -7    3    2    0.000000   -0.000000
   -7   -4   -7    1    3    0.000000    0.000000
   -7   -4   -7    2    3    0.000000    0.000000
   -7   -4   -7    3    3    0.000000    0.000000
   -7   -4   -6    1    1    0.000000   -0.000000
   -7   -4   -6    2    1   -0.000000    0.000000
   -7   -4   -6    3    1    0.000000    0.000000
   -7   -4   -6    1    2   -0.000000   -0.000000
   -7   -4   -6    2    2   -0.000000    0.000000
   -7   -4   -6    3    2    0.000000    0.000000
   -7   -4   -6    1    3    0.000000    0.000000
   -7   -4   -6    2    3    0.000000    0.000000
   -7   -4   -6    3    3    0.000000   -0.000000
   -7   -4   -5    1    1   -0.000000    0.000000
   -7   -4   -5    2    1   -0.000000   -0.000000
   -7   -4   -5    3    1    0.000000   -0.000000
   -7   -4   -5    1    2   -0.000000   -0.000000
   -7   -4   -5    2    2   -0.000000    0.000000
   -7   -4   -5    3    2   -0.000000    0.000000
   -7   -4   -5    1    3    0.000000   -0.000000
   -7   -4   -5    2    3   -0.000000    0.000000
   -7   -4   -5    3    3    0.000000   -0.000000
   -7   -3   -8    1    1   -0.000000    0.000000
   -7   -3   -8    2    1   -0.000000    0.000000
   -7   -3   -8    3    1    0.000000   -0.000000
   -7   -3   -8    1    2    0.000000    0.000000
   -7   -3   -8    2    2    0.000002    0.000000
   -7   -3   -8    3    2    0.000002    0.000000
   -7   -3   -8    1    3   -0.000000    0.000000
   -7   -3   -8    2    3    0.000002    0.000000
   -7   -3   -8    3    3    0.000002    0.000000
   -7   -3   -7    1    1   -0.000000   -0.000000
   -7   -3   -7    2    1    0.000001   -0.000000
   -7   -3   -7    3    1   -0.000000    0.000000
   -7   -3   -7    1    2    0.000001    0.000000
   -7   -3   -7    2    2    0.000002    0.000000
   -7   -3   -7    3    2    0.000001   -0.000000
   -7   -3   -7    1    3   -0.000000    0.000000
   -7   -3   -7    2    3    0.000001    0.000000
   -7   -3   -7    3    3   -0.000000   -0.000000
   -7   -3   -6    1    1    0.000000    0.000000
   -7   -3   -6    2    1    0.000000   -0.000000
   -7   -3   -6    3    1   -0.000000   -0.000000
   -7   -3   -6    1    2    0.000000   -0.000000
   -7   -3   -6    2    2    0.000000   -0.000000
   -7   -3   -6    3    2    0.000000    0.000000
   -7   -3   -6    1    3   -0.000000   -0.000000
   -7   -3   -6    2    3    0.000000   -0.000000
   -7   -3   -6    3    3   -0.000000   -0.000000
   -7   -3   -5    1    1    0.000000   -0.000000
   -7   -3   -5    2    1   -0.000000    0.000000
   -7   -3   -5    3    1   -0.000000    0.000000
   -7   -3   -5    1    2   -0.000000    0.000000
   -7   -3   -5    2    2   -0.000000    0.000000
   -7   -3   -5    3    2    0.000000    0.000000
   -7   -3   -5    1    3   -0.000000    0.000000
   -7   -3   -5    2    3    0.000000    0.000000
   -7   -3   -5    3    3   -0.000000   -0.000000
   -7   -3   -4    1    1    0.000000    0.000000
   -7   -3   -4    2    1   -0.000000   -0.000000
   -7   -3   -4    3    1    0.000000   -0.000000
   -7   -3   -4    1    2   -0.000000   -0.000000
   -7   -3   -4    2    2   -0.000000    0.000000
   -7   -3   -4    3    2   -0.000000   -0.000000
   -7   -3   -4    1    3    0.000000   -0.000000
   -7   -3   -4    2    3   -0.000000    0.000000
   -7   -3   -4    3    3    0.000000   -0.000000
   -7   -2   -7    1    1   -0.000002    0.000000
   -7   -2   -7    2    1   -0.000000    0.000000
   -7   -2   -7    3    1   -0.000000   -0.000000
   -7   -2   -7    1    2    0.000000    0.000000
   -7   -2   -7    2    2    0.000003   -0.000000
   -7   -2   -7    3    2    0.000001    0.000000
   -7   -2   -7    1    3   -0.000000    0.000000
   -7   -2   -7    2    3    0.000001    0.000000
   -7   -2   -7    3    3   -0.000004    0.000000
   -7   -2   -6    1    1   -0.000001   -0.000000
   -7   -2   -6    2    1    0.000000    0.000000
   -7   -2   -6    3    1   -0.000000    0.000000
   -7   -2   -6    1    2    0.000000    0.000000
   -7   -2   -6    2    2    0.000003    0.000000
   -7   -2   -6    3    2    0.000000    0.000000
   -7   -2   -6    1    3   -0.000000    0.000000
   -7   -2   -6    2    3    0.000000   -0.000000
   -7   -2   -6    3    3   -0.000001   -0.000000
   -7   -2   -5    1    1    0.000000   -0.000000
   -7   -2   -5    2    1    0.000000   -0.000000
   -7   -2   -5    3    1   -0.000000   -0.000000
   -7   -2   -5    1    2    0.000000    0.000000
   -7   -2   -5    2    2    0.000000    0.000000
   -7   -2   -5    3    2   -0.000000    0.000000
   -7   -2   -5    1    3   -0.000000   -0.000000
   -7   -2   -5    2    3   -0.000000   -0.000000
   -7   -2   -5    3    3   -0.000000   -0.000000
   -7   -2   -4    1    1    0.000000    0.000000
   -7   -2   -4    2    1    0.000000    0.000000
   -7   -2   -4    3    1   -0.000000    0.000000
   -7   -2   -4    1    2    0.000000   -0.000000
   -7   -2   -4    2    2   -0.000000   -0.000000
   -7   -2   -4    3    2   -0.000000    0.000000
   -7   -2   -4    1    3   -0.000000    0.000000
   -7   -2   -4    2    3   -0.000000    0.000000
   -7   -2   -4    3    3   -0.000000   -0.000000
   -7   -2   -3    1    1   -0.000000    0.000000
   -7   -2   -3    2    1    0.000000    0.000000
   -7   -2   -3    3    1    0.000000   -0.000000
   -7   -2   -3    1    2    0.000000   -0.000000
   -7   -2   -3    2    2   -0.000000   -0.000000
   -7   -2   -3    3    2    0.000000   -0.000000
   -7   -2   -3    1    3    0.000000   -0.000000
   -7   -2   -3    2    3    0.000000    0.000000
   -7   -2   -3    3    3    0.000000   -0.000000
   -7   -1   -6    1    1    0.000000    0.000000
   -7   -1   -6    2    1    0.000000    0.000000
   -7   -1   -6    3    1   -0.000000   -0.000000
   -7   -1   -6    1    2    0.000000    0.000000
   -7   -1   -6    2    2    0.000004   -0.000000
   -7   -1   -6    3    2    0.000000    0.000000
   -7   -1   -6    1    3   -0.000000    0.000000
   -7   -1   -6    2    3   -0.000000    0.000000
   -7   -1   -6    3    3   -0.000004    0.000000
   -7   -1   -5    1    1   -0.000001   -0.000000
   -7   -1   -5    2    1   -0.000000    0.000000
   -7   -1   -5    3    1   -0.000000    0.000000
   -7   -1   -5    1    2   -0.000000    0.000000
   -7   -1   -5    2    2    0.000003    0.000000
   -7   -1   -5    3    2   -0.000000   -0.000000
   -7   -1   -5    1    3   -0.000000    0.000000
   -7   -1   -5    2    3   -0.000000    0.000000
   -7   -1   -5    3    3   -0.000001   -0.000000
   -7   -1   -4    1    1    0.000000   -0.000000
   -7   -1   -4    2    1   -0.000000    0.000000
   -7   -1   -4    3    1   -0.000000   -0.000000
   -7   -1   -4    1    2   -0.000000    0.000000
   -7   -1   -4    2    2    0.000000    0.000000
   -7   -1   -4    3    2   -0.000000    0.000000
   -7   -1   -4    1    3   -0.000000   -0.000000
   -7   -1   -4    2    3   -0.000000   -0.000000
   -7   -1   -4    3    3   -0.000000    0.000000
   -7   -1   -3    1    1    0.000000    0.000000
   -7   -1   -3    2    1    0.000000    0.000000
   -7   -1   -3    3    1    0.000000    0.000000
   -7   -1   -3    1    2    0.000000    0.000000
   -7   -1   -3    2    2   -0.000000   -0.000000
   -7   -1   -3    3    2   -0.000000    0.000000
   -7   -1   -3    1    3    0.000000    0.000000
   -7   -1   -3    2    3   -0.000000    0.000000
   -7   -1   -3    3    3    0.000000    0.000000
   -7   -1   -2    1    1   -0.000000    0.000000
   -7   -1   -2    2    1    0.000000    0.000000
   -7   -1   -2    3    1    0.000000   -0.000000
   -7   -1   -2    1    2    0.000000    0.000000
   -7   -1   -2    2    2   -0.000000   -0.000000
   -7   -1   -2    3    2   -0.000000   -0.000000
   -7   -1   -2    1    3    0.000000   -0.000000
   -7   -1   -2    2    3   -0.000000    0.000000
   -7   -1   -2    3    3    0.000000   -0.000000
   -7    0   -5    1    1   -0.000002    0.000000
   -7    0   -5    2    1    0.000000   -0.000000
   -7    0   -5    3    1   -0.000000   -0.000000
   -7    0   -5    1    2    0.000000    0.000000
   -7    0   -5    2    2    0.000003   -0.000000
   -7    0   -5    3    2   -0.000001    0.000000
   -7    0   -5    1    3   -0.000000    0.000000
   -7    0   -5    2    3   -0.000001   -0.000000
   -7    0   -5    3    3   -0.000004   -0.000000
   -7    0   -4    1    1   -0.000000   -0.000000
   -7    0   -4    2    1   -0.000001   -0.000000
   -7    0   -4    3    1   -0.000000    0.000000
   -7    0   -4    1    2   -0.000001    0.000000
   -7    0   -4    2    2    0.000002    0.000000
   -7    0   -4    3    2   -0.000001    0.000000
   -7    0   -4    1    3   -0.000000    0.000000
   -7    0   -4    2    3   -0.000001   -0.000000
   -7    0   -4    3    3   -0.000000    0.000000
   -7    0   -3    1    1   -0.000000   -0.000000
   -7    0   -3    2    1    0.000000    0.000000
   -7    0   -3    3    1    0.000000   -0.000000
   -7    0   -3    1    2    0.000000   -0.000000
   -7    0   -3    2    2   -0.000000    0.000000
   -7    0   -3    3    2   -0.000000    0.000000
   -7    0   -3    1    3    0.000000   -0.000000
   -7    0   -3    2    3   -0.000000   -0.000000
   -7    0   -3    3    3    0.000000    0.000000
   -7    0   -2    1    1   -0.000000    0.000000
   -7    0   -2    2    1    0.000000    0.000000
   -7    0   -2    3    1    0.000000   -0.000000
   -7    0   -2    1    2    0.000000   -0.000000
   -7    0   -2    2    2   -0.000000   -0.000000
   -7    0   -2    3    2   -0.000000   -0.000000
   -7    0   -2    1    3    0.000000    0.000000
   -7    0   -2    2    3   -0.000000    0.000000
   -7    0   -2    3    3    0.000000    0.000000
   -7    1   -4    1    1   -0.000000    0.000000
   -7    1   -4    2    1    0.000000   -0.000000
   -7    1   -4    3    1   -0.000000   -0.000000
   -7    1   -4    1    2   -0.000000   -0.000000
   -7    1   -4    2    2    0.000002   -0.000000
   -7    1   -4    3    2   -0.000002    0.000000
   -7    1   -4    1    3   -0.000000    0.000000
   -7    1   -4    2    3   -0.000002   -0.000000
   -7    1   -4    3    3    0.000002   -0.000000
   -7    1   -3    1    1    0.000000   -0.000000
   -7    1   -3    2    1   -0.000000    0.000000
   -7    1   -3    3    1    0.000000    0.000000
   -7    1   -3    1    2   -0.000000    0.000000
   -7    1   -3    2    2    0.000001   -0.000000
   -7    1   -3    3    2   -0.000001    0.000000
   -7    1   -3    1    3    0.000000    0.000000
   -7    1   -3    2    3   -0.000001    0.000000
   -7    1   -3    3    3    0.000000    0.000000
   -7    1   -2    1    1   -0.000000   -0.000000
   -7    1   -2    2    1    0.000000    0.000000
   -7    1   -2    3    1    0.000000   -0.000000
   -7    1   -2    1    2    0.000000    0.000000
   -7    1   -2    2    2   -0.000000   -0.000000
   -7    1   -2    3    2   -0.000000    0.000000
   -7    1   -2    1    3    0.000000   -0.000000
   -7    1   -2    2    3   -0.000000   -0.000000
   -7    1   -2    3    3    0.000000    0.000000
   -7    1   -1    1    1   -0.000000   -0.000000
   -7    1   -1    2    1    0.000000    0.000000
   -7    1   -1    3    1    0.000000   -0.000000
   -7    1   -1    1    2    0.000000    0.000000
   -7    1   -1    2    2   -0.000000    0.000000
   -7    1   -1    3    2   -0.000000    0.000000
   -7    1   -1    1    3    0.000000    0.000000
   -7    1   -1    2    3   -0.000000    0.000000
   -7    1   -1    3    3    0.000000    0.000000
   -7    2   -3    1    1   -0.000000    0.000000
   -7    2   -3    2    1   -0.000000    0.000000
   -7    2   -3    3    1   -0.000000    0.000000
   -7    2   -3    1    2   -0.000000   -0.000000
   -7    2   -3    2    2    0.000001    0.000000
   -7    2   -3    3    2   -0.000001   -0.000000
   -7    2   -3    1    3   -0.000000    0.000000
   -7    2   -3    2    3   -0.000001   -0.000000
   -7    2   -3    3    3    0.000003   -0.000000
   -7    2   -2    1    1    0.000000   -0.000000
   -7    2   -2    2    1    0.000000   -0.000000
   -7    2   -2    3    1    0.000000   -0.000000
   -7    2   -2    1    2    0.000000    0.000000
   -7    2   -2    2    2    0.000000   -0.000000
   -7    2   -2    3    2   -0.000000    0.000000
   -7    2   -2    1    3    0.000000    0.000000
   -7    2   -2    2    3   -0.000000    0.000000
   -7    2   -2    3    3    0.000001    0.000000
   -7    2   -1    1    1   -0.000000   -0.000000
   -7    2   -1    2    1    0.000000    0.000000
   -7    2   -1    3    1    0.000000   -0.000000
   -7    2   -1    1    2    0.000000   -0.000000
   -7    2   -1    2    2   -0.000000    0.000000
   -7    2   -1    3    2   -0.000000    0.000000
   -7    2   -1    1    3    0.000000    0.000000
   -7    2   -1    2    3   -0.000000   -0.000000
   -7    2   -1    3    3    0.000000   -0.000000
   -7    2    0    1    1   -0.000000   -0.000000
   -7    2    0    2    1    0.000000    0.000000
   -7    2    0    3    1    0.000000   -0.000000
   -7    2    0    1    2    0.000000   -0.000000
   -7    2    0    2    2   -0.000000    0.000000
   -7    2    0    3    2   -0.000000   -0.000000
   -7    2    0    1    3    0.000000    0.000000
   -7    2    0    2    3   -0.000000    0.000000
   -7    2    0    3    3    0.000000    0.000000
   -7    3   -2    1    1    0.000000   -0.000000
   -7    3   -2    2    1   -0.000000    0.000000
   -7    3   -2    3    1   -0.000000    0.000000
   -7    3   -2    1    2   -0.000000    0.000000
   -7    3   -2    2    2    0.000000    0.000000
   -7    3   -2    3    2   -0.000001   -0.000000
   -7    3   -2    1    3   -0.000000    0.000000
   -7    3   -2    2    3   -0.000001    0.000000
   -7    3   -2    3    3    0.000001   -0.000000
   -7    3   -1    1    1   -0.000000    0.000000
   -7    3   -1    2    1    0.000000    0.000000
   -7    3   -1    3    1    0.000000   -0.000000
   -7    3   -1    1    2    0.000000    0.000000
   -7    3   -1    2    2   -0.000000   -0.000000
   -7    3   -1    3    2   -0.000000    0.000000
   -7    3   -1    1    3    0.000000    0.000000
   -7    3   -1    2    3   -0.000000    0.000000
   -7    3   -1    3    3   -0.000000    0.000000
   -7    3    0    1    1   -0.000000   -0.000000
   -7    3    0    2    1    0.000000    0.000000
   -7    3    0    3    1    0.000000   -0.000000
   -7    3    0    1    2    0.000000    0.000000
   -7    3    0    2    2   -0.000000    0.000000
   -7    3    0    3    2   -0.000000   -0.000000
   -7    3    0    1    3    0.000000    0.000000
   -7    3    0    2    3   -0.000000   -0.000000
   -7    3    0    3    3    0.000000   -0.000000
   -7    3    1    1    1   -0.000000    0.000000
   -7    3    1    2    1    0.000000    0.000000
   -7    3    1    3    1    0.000000   -0.000000
   -7    3    1    1    2    0.000000    0.000000
   -7    3    1    2    2   -0.000000    0.000000
   -7    3    1    3    2   -0.000000    0.000000
   -7    3    1    1    3    0.000000    0.000000
   -7    3    1    2    3   -0.000000   -0.000000
   -7    3    1    3    3   -0.000000    0.000000
   -7    4   -1    1    1   -0.000000   -0.000000
   -7    4   -1    2    1    0.000000   -0.000000
   -7    4   -1    3    1   -0.000000    0.000000
   -7    4   -1    1    2    0.000000   -0.000000
   -7    4   -1    2    2   -0.000000    0.000000
   -7    4   -1    3    2   -0.000000   -0.000000
   -7    4   -1    1    3   -0.000000    0.000000
   -7    4   -1    2    3   -0.000000    0.000000
   -7    4   -1    3    3   -0.000002   -0.000000
   -7    4    0    1    1   -0.000000    0.000000
   -7    4    0    2    1    0.000000   -0.000000
   -7    4    0    3    1    0.000000   -0.000000
   -7    4    0    1    2    0.000000    0.000000
   -7    4    0    2    2   -0.000000   -0.000000
   -7    4    0    3    2   -0.000000   -0.000000
   -7    4    0    1    3    0.000000    0.000000
   -7    4    0    2    3   -0.000000   -0.000000
   -7    4    0    3    3   -0.000001    0.000000
   -7    4    1    1    1   -0.000000    0.000000
   -7    4    1    2    1   -0.000000    0.000000
   -7    4    1    3    1    0.000000   -0.000000
   -7    4    1    1    2   -0.000000   -0.000000
   -7    4    1    2    2   -0.000000    0.000000
   -7    4    1    3    2    0.000000   -0.000000
   -7    4    1    1    3    0.000000    0.000000
   -7    4    1    2    3    0.000000   -0.000000
   -7    4    1    3    3   -0.000000   -0.000000
   -7    5    0    1    1   -0.000000   -0.000000
   -7    5    0    2    1    0.000000   -0.000000
   -7    5    0    3    1   -0.000000   -0.000000
   -7    5    0    1    2    0.000000    0.000000
   -7    5    0    2    2   -0.000000    0.000000
   -7    5    0    3    2    0.000000   -0.000000
   -7    5    0    1    3   -0.000000    0.000000
   -7    5    0    2    3   -0.000000    0.000000
   -7    5    0    3    3   -0.000003    0.000000
   -6   -8  -10    1    1   -0.000000    0.000000
   -6   -8  -10    2    1    0.000000   -0.000000
   -6   -8  -10    3    1    0.000000   -0.000000
   -6   -8  -10    1    2    0.000000   -0.000000
   -6   -8  -10    2    2   -0.000000   -0.000000
   -6   -8  -10    3    2    0.000000   -0.000000
   -6   -8  -10    1    3    0.000000   -0.000000
   -6   -8  -10    2    3    0.000000   -0.000000
   -6   -8  -10    3    3    0.000000   -0.000000
   -6   -8   -9    1    1   -0.000000   -0.000000
   -6   -8   -9    2    1   -0.000000   -0.000000
   -6   -8   -9    3    1    0.000000   -0.000000
   -6   -8   -9    1    2   -0.000000   -0.000000
   -6   -8   -9    2    2   -0.000000    0.000000
   -6   -8   -9    3    2    0.000000    0.000000
   -6   -8   -9    1    3    0.000000   -0.000000
   -6   -8   -9    2    3    0.000000    0.000000
   -6   -8   -9    3    3   -0.000000   -0.000000
   -6   -7  -11    1    1   -0.000000    0.000000
   -6   -7  -11    2    1    0.000000    0.000000
   -6   -7  -11    3    1    0.000000    0.000000
   -6   -7  -11    1    2    0.000000    0.000000
   -6   -7  -11    2    2   -0.000000   -0.000000
   -6   -7  -11    3    2    0.000000   -0.000000
   -6   -7  -11    1    3    0.000000    0.000000
   -6   -7  -11    2    3   -0.000000    0.000000
   -6   -7  -11    3    3   -0.000002   -0.000000
   -6   -7  -10    1    1   -0.000000   -0.000000
   -6   -7  -10    2    1   -0.000000    0.000000
   -6   -7  -10    3    1    0.000000   -0.000000
   -6   -7  -10    1    2   -0.000000   -0.000000
   -6   -7  -10    2    2   -0.000000    0.000000
   -6   -7  -10    3    2    0.000000    0.000000
   -6   -7  -10    1    3    0.000000    0.000000
   -6   -7  -10    2    3    0.000000    0.000000
   -6   -7  -10    3    3   -0.000000    0.000000
   -6   -7   -9    1    1   -0.000000    0.000000
   -6   -7   -9    2    1   -0.000000   -0.000000
   -6   -7   -9    3    1    0.000000   -0.000000
   -6   -7   -9    1    2   -0.000000    0.000000
   -6   -7   -9    2    2   -0.000000   -0.000000
   -6   -7   -9    3    2    0.000000   -0.000000
   -6   -7   -9    1    3    0.000000    0.000000
   -6   -7   -9    2    3    0.000000   -0.000000
   -6   -7   -9    3    3    0.000000   -0.000000
   -6   -7   -8    1    1   -0.000000   -0.000000
   -6   -7   -8    2    1   -0.000000    0.000000
   -6   -7   -8    3    1    0.000000   -0.000000
   -6   -7   -8    1    2   -0.000000   -0.000000
   -6   -7   -8    2    2   -0.000000    0.000000
   -6   -7   -8    3    2    0.000000    0.000000
   -6   -7   -8    1    3    0.000000   -0.000000
   -6   -7   -8    2    3    0.000000   -0.000000
   -6   -7   -8    3    3    0.000000   -0.000000
   -6   -6  -12    1    1   -0.000000   -0.000000
   -6   -6  -12    2    1    0.000000   -0.000000
   -6   -6  -12    3    1   -0.000000   -0.000000
   -6   -6  -12    1    2    0.000000    0.000000
   -6   -6  -12    2    2   -0.000000   -0.000000
   -6   -6  -12    3    2   -0.000000    0.000000
   -6   -6  -12    1    3   -0.000000    0.000000
   -6   -6  -12    2    3   -0.000000   -0.000000
   -6   -6  -12    3    3   -0.000729   -0.000000
   -6   -6  -11    1    1    0.000000   -0.000000
   -6   -6  -11    2    1   -0.000000   -0.000000
   -6   -6  -11    3    1    0.000001   -0.000000
   -6   -6  -11    1    2   -0.000000    0.000000
   -6   -6  -11    2    2    0.000000   -0.000000
   -6   -6  -11    3    2    0.000001   -0.000000
   -6   -6  -11    1    3    0.000001   -0.000000
   -6   -6  -11    2    3    0.000001    0.000000
   -6   -6  -11    3    3   -0.000017    0.000000
   -6   -6  -10    1    1   -0.000000    0.000000
   -6   -6  -10    2    1   -0.000000   -0.000000
   -6   -6  -10    3    1    0.000001   -0.000000
   -6   -6  -10    1    2   -0.000000    0.000000
   -6   -6  -10    2    2   -0.000000   -0.000000
   -6   -6  -10    3    2    0.000001    0.000000
   -6   -6  -10    1    3    0.000001    0.000000
   -6   -6  -10    2    3    0.000001    0.000000
   -6   -6  -10    3    3   -0.000001   -0.000000
   -6   -6   -9    1    1   -0.000000   -0.000000
   -6   -6   -9    2    1   -0.000000   -0.000000
   -6   -6   -9    3    1    0.000001   -0.000000
   -6   -6   -9    1    2   -0.000000   -0.000000
   -6   -6   -9    2    2   -0.000000   -0.000000
   -6   -6   -9    3    2    0.000001   -0.000000
   -6   -6   -9    1    3    0.000001    0.000000
   -6   -6   -9    2    3    0.000001   -0.000000
   -6   -6   -9    3    3    0.000000    0.000000
   -6   -6   -8    1    1   -0.000000    0.000000
   -6   -6   -8    2    1   -0.000000   -0.000000
   -6   -6   -8    3    1    0.000000   -0.000000
   -6   -6   -8    1    2   -0.000000   -0.000000
   -6   -6   -8    2    2   -0.000000    0.000000
   -6   -6   -8    3    2    0.000000   -0.000000
   -6   -6   -8    1    3    0.000000    0.000000
   -6   -6   -8    2    3    0.000000    0.000000
   -6   -6   -8    3    3   -0.000000   -0.000000
   -6   -6   -7    1    1   -0.000000   -0.000000
   -6   -6   -7    2    1   -0.000000   -0.000000
   -6   -6   -7    3    1    0.000000   -0.000000
   -6   -6   -7    1    2   -0.000000   -0.000000
   -6   -6   -7    2    2   -0.000000   -0.000000
   -6   -6   -7    3    2    0.000000   -0.000000
   -6   -6   -7    1    3    0.000000   -0.000000
   -6   -6   -7    2    3    0.000000    0.000000
   -6   -6   -7    3    3   -0.000000    0.000000
   -6   -6   -6    1    1    0.000000   -0.000000
   -6   -6   -6    2    1   -0.000000    0.000000
   -6   -6   -6    3    1    0.000000    0.000000
   -6   -6   -6    1    2   -0.000000   -0.000000
   -6   -6   -6    2    2    0.000000   -0.000000
   -6   -6   -6    3    2    0.000000    0.000000
   -6   -6   -6    1    3    0.000000   -0.000000
   -6   -6   -6    2    3    0.000000   -0.000000
   -6   -6   -6    3    3    0.000000   -0.000000
   -6   -5  -11    1    1    0.000000    0.000000
   -6   -5  -11    2    1    0.000000    0.000000
   -6   -5  -11    3    1   -0.000000   -0.000000
   -6   -5  -11    1    2   -0.000000    0.000000
   -6   -5  -11    2    2    0.000001    0.000000
   -6   -5  -11    3    2   -0.000000    0.000000
   -6   -5  -11    1    3   -0.000000   -0.000000
   -6   -5  -11    2    3   -0.000000   -0.000000
   -6   -5  -11    3    3   -0.000759    0.000000
   -6   -5  -10    1    1   -0.000000   -0.000000
   -6   -5  -10    2    1   -0.000001    0.000000
   -6   -5  -10    3    1    0.000002   -0.000000
   -6   -5  -10    1    2   -0.000001   -0.000000
   -6   -5  -10    2    2   -0.000001    0.000000
   -6   -5  -10    3    2    0.000004   -0.000000
   -6   -5  -10    1    3    0.000002    0.000000
   -6   -5  -10    2    3    0.000004   -0.000000
   -6   -5  -10    3    3   -0.000022   -0.000000
   -6   -5   -9    1    1    0.000000    0.000000
   -6   -5   -9    2    1   -0.000000   -0.000000
   -6   -5   -9    3    1    0.000002   -0.000000
   -6   -5   -9    1    2   -0.000000    0.000000
   -6   -5   -9    2    2   -0.000000    0.000000
   -6   -5   -9    3    2    0.000002    0.000000
   -6   -5   -9    1    3    0.000002    0.000000
   -6   -5   -9    2    3    0.000002    0.000000
   -6   -5   -9    3    3    0.000000   -0.000000
   -6   -5   -8    1    1   -0.000001   -0.000000
   -6   -5   -8    2    1   -0.000001   -0.000000
   -6   -5   -8    3    1    0.000001   -0.000000
   -6   -5   -8    1    2   -0.000001    0.000000
   -6   -5   -8    2    2   -0.000001    0.000000
   -6   -5   -8    3    2    0.000001   -0.000000
   -6   -5   -8    1    3    0.000001    0.000000
   -6   -5   -8    2    3    0.000001    0.000000
   -6   -5   -8    3    3    0.000000    0.000000
   -6   -5   -7    1    1   -0.000000    0.000000
   -6   -5   -7    2    1   -0.000001   -0.000000
   -6   -5   -7    3    1    0.000000   -0.000000
   -6   -5   -7    1    2   -0.000001    0.000000
   -6   -5   -7    2    2   -0.000001    0.000000
   -6   -5   -7    3    2    0.000000   -0.000000
   -6   -5   -7    1    3    0.000000    0.000000
   -6   -5   -7    2    3    0.000000    0.000000
   -6   -5   -7    3    3   -0.000000   -0.000000
   -6   -5   -6    1    1   -0.000000    0.000000
   -6   -5   -6    2    1   -0.000000   -0.000000
   -6   -5   -6    3    1    0.000000   -0.000000
   -6   -5   -6    1    2   -0.000000    0.000000
   -6   -5   -6    2    2   -0.000000   -0.000000
   -6   -5   -6    3    2    0.000000    0.000000
   -6   -5   -6    1    3    0.000000   -0.000000
   -6   -5   -6    2    3    0.000000   -0.000000
   -6   -5   -6    3    3   -0.000000   -0.000000
   -6   -5   -5    1    1   -0.000000   -0.000000
   -6   -5   -5    2    1   -0.000000    0.000000
   -6   -5   -5    3    1    0.000000    0.000000
   -6   -5   -5    1    2   -0.000000    0.000000
   -6   -5   -5    2    2   -0.000000   -0.000000
   -6   -5   -5    3    2    0.000000    0.000000
   -6   -5   -5    1    3    0.000000   -0.000000
   -6   -5   -5    2    3    0.000000   -0.000000
   -6   -5   -5    3    3   -0.000000    0.000000
   -6   -4  -10    1    1    0.000003    0.000000
   -6   -4  -10    2    1   -0.000000   -0.000000
   -6   -4  -10    3    1   -0.000000    0.000000
   -6   -4  -10    1    2    0.000000    0.000000
   -6   -4  -10    2    2    0.000004   -0.000000
   -6   -4  -10    3    2   -0.000000    0.000000
   -6   -4  -10    1    3   -0.000000    0.000000
   -6   -4  -10    2    3    0.000000   -0.000000
   -6   -4  -10    3    3   -0.000831    0.000000
   -6   -4   -9    1    1   -0.000002    0.000000
   -6   -4   -9    2    1    0.000001    0.000000
   -6   -4   -9    3    1    0.000005    0.000000
   -6   -4   -9    1    2    0.000001    0.000000
   -6   -4   -9    2    2   -0.000002   -0.000000
   -6   -4   -9    3    2    0.000005    0.000000
   -6   -4   -9    1    3    0.000005    0.000000
   -6   -4   -9    2    3    0.000005    0.000000
   -6   -4   -9    3    3   -0.000023   -0.000000
   -6   -4   -8    1    1    0.000001    0.000000
   -6   -4   -8    2    1    0.000001   -0.000000
   -6   -4   -8    3    1    0.000003   -0.000000
   -6   -4   -8    1    2    0.000001   -0.000000
   -6   -4   -8    2    2    0.000000   -0.000000
   -6   -4   -8    3    2    0.000002    0.000000
   -6   -4   -8    1    3    0.000003    0.000000
   -6   -4   -8    2    3    0.000002    0.000000
   -6   -4   -8    3    3    0.000002    0.000000
   -6   -4   -7    1    1   -0.000000   -0.000000
   -6   -4   -7    2    1   -0.000000    0.000000
   -6   -4   -7    3    1    0.000001    0.000000
   -6   -4   -7    1    2   -0.000000    0.000000
   -6   -4   -7    2    2   -0.000002    0.000000
   -6   -4   -7    3    2    0.000001   -0.000000
   -6   -4   -7    1    3    0.000001    0.000000
   -6   -4   -7    2    3    0.000001   -0.000000
   -6   -4   -7    3    3    0.000000   -0.000000
   -6   -4   -6    1    1   -0.000000    0.000000
   -6   -4   -6    2    1   -0.000001   -0.000000
   -6   -4   -6    3    1    0.000000   -0.000000
   -6   -4   -6    1    2   -0.000001    0.000000
   -6   -4   -6    2    2   -0.000001    0.000000
   -6   -4   -6    3    2    0.000000   -0.000000
   -6   -4   -6    1    3    0.000000   -0.000000
   -6   -4   -6    2    3    0.000000    0.000000
   -6   -4   -6    3    3   -0.000000   -0.000000
   -6   -4   -5    1    1    0.000000   -0.000000
   -6   -4   -5    2    1   -0.000000   -0.000000
   -6   -4   -5    3    1    0.000000   -0.000000
   -6   -4   -5    1    2   -0.000000   -0.000000
   -6   -4   -5    2    2   -0.000000    0.000000
   -6   -4   -5    3    2    0.000000    0.000000
   -6   -4   -5    1    3    0.000000   -0.000000
   -6   -4   -5    2    3    0.000000    0.000000
   -6   -4   -5    3    3    0.000000   -0.000000
   -6   -4   -4    1    1   -0.000000    0.000000
   -6   -4   -4    2    1   -0.000000    0.000000
   -6   -4   -4    3    1    0.000000    0.000000
   -6   -4   -4    1    2   -0.000000   -0.000000
   -6   -4   -4    2    2   -0.000000    0.000000
   -6   -4   -4    3    2   -0.000000    0.000000
   -6   -4   -4    1    3    0.000000   -0.000000
   -6   -4   -4    2    3   -0.000000    0.000000
   -6   -4   -4    3    3    0.000000   -0.000000
   -6   -3   -9    1    1    0.000004   -0.000000
   -6   -3   -9    2    1   -0.000000    0.000000
   -6   -3   -9    3    1    0.000000    0.000000
   -6   -3   -9    1    2    0.000000    0.000000
   -6   -3   -9    2    2   -0.000005    0.000000
   -6   -3   -9    3    2   -0.000000    0.000000
   -6   -3   -9    1    3   -0.000000    0.000000
   -6   -3   -9    2    3   -0.000000   -0.000000
   -6   -3   -9    3    3   -0.000884    0.000000
   -6   -3   -8    1    1   -0.000001    0.000000
   -6   -3   -8    2    1   -0.000001   -0.000000
   -6   -3   -8    3    1    0.000008    0.000000
   -6   -3   -8    1    2   -0.000001   -0.000000
   -6   -3   -8    2    2    0.000001   -0.000000
   -6   -3   -8    3    2    0.000001    0.000000
   -6   -3   -8    1    3    0.000008    0.000000
   -6   -3   -8    2    3    0.000001   -0.000000
   -6   -3   -8    3    3   -0.000022   -0.000000
   -6   -3   -7    1    1    0.000001    0.000000
   -6   -3   -7    2    1    0.000005   -0.000000
   -6   -3   -7    3    1    0.000003   -0.000000
   -6   -3   -7    1    2    0.000005    0.000000
   -6   -3   -7    2    2    0.000002    0.000000
   -6   -3   -7    3    2    0.000003    0.000000
   -6   -3   -7    1    3    0.000003    0.000000
   -6   -3   -7    2    3    0.000003    0.000000
   -6   -3   -7    3    3    0.000003   -0.000000
   -6   -3   -6    1    1    0.000000   -0.000000
   -6   -3   -6    2    1    0.000000   -0.000000
   -6   -3   -6    3    1    0.000000    0.000000
   -6   -3   -6    1    2    0.000000   -0.000000
   -6   -3   -6    2    2   -0.000001   -0.000000
   -6   -3   -6    3    2    0.000000   -0.000000
   -6   -3   -6    1    3    0.000000    0.000000
   -6   -3   -6    2    3    0.000000    0.000000
   -6   -3   -6    3    3    0.000000    0.000000
   -6   -3   -5    1    1    0.000000   -0.000000
   -6   -3   -5    2    1   -0.000000   -0.000000
   -6   -3   -5    3    1    0.000000   -0.000000
   -6   -3   -5    1    2   -0.000000    0.000000
   -6   -3   -5    2    2   -0.000001    0.000000
   -6   -3   -5    3    2    0.000000    0.000000
   -6   -3   -5    1    3    0.000000   -0.000000
   -6   -3   -5    2    3    0.000000   -0.000000
   -6   -3   -5    3    3    0.000000   -0.000000
   -6   -3   -4    1    1    0.000000    0.000000
   -6   -3   -4    2    1   -0.000000    0.000000
   -6   -3   -4    3    1    0.000000   -0.000000
   -6   -3   -4    1    2   -0.000000    0.000000
   -6   -3   -4    2    2   -0.000000   -0.000000
   -6   -3   -4    3    2    0.000000    0.000000
   -6   -3   -4    1    3    0.000000   -0.000000
   -6   -3   -4    2    3    0.000000    0.000000
   -6   -3   -4    3    3    0.000000   -0.000000
   -6   -3   -3    1    1    0.000000    0.000000
   -6   -3   -3    2    1   -0.000000    0.000000
   -6   -3   -3    3    1    0.000000    0.000000
   -6   -3   -3    1    2   -0.000000    0.000000
   -6   -3   -3    2    2   -0.000000    0.000000
   -6   -3   -3    3    2    0.000000   -0.000000
   -6   -3   -3    1    3    0.000000   -0.000000
   -6   -3   -3    2    3    0.000000    0.000000
   -6   -3   -3    3    3    0.000000   -0.000000
   -6   -2   -8    1    1    0.000000    0.000000
   -6   -2   -8    2    1   -0.000000   -0.000000
   -6   -2   -8    3    1   -0.000000    0.000000
   -6   -2   -8    1    2   -0.000000   -0.000000
   -6   -2   -8    2    2   -0.000021   -0.000000
   -6   -2   -8    3    2   -0.000000    0.000000
   -6   -2   -8    1    3   -0.000000    0.000000
   -6   -2   -8    2    3   -0.000000   -0.000000
   -6   -2   -8    3    3   -0.000916    0.000000
   -6   -2   -7    1    1    0.000001   -0.000000
   -6   -2   -7    2    1   -0.000005    0.000000
   -6   -2   -7    3    1    0.000013    0.000000
   -6   -2   -7    1    2   -0.000005   -0.000000
   -6   -2   -7    2    2   -0.000011    0.000000
   -6   -2   -7    3    2   -0.000006    0.000000
   -6   -2   -7    1    3    0.000013   -0.000000
   -6   -2   -7    2    3   -0.000006   -0.000000
   -6   -2   -7    3    3   -0.000009   -0.000000
   -6   -2   -6    1    1   -0.000003    0.000000
   -6   -2   -6    2    1    0.000008   -0.000000
   -6   -2   -6    3    1    0.000000   -0.000000
   -6   -2   -6    1    2    0.000008   -0.000000
   -6   -2   -6    2    2    0.000012    0.000000
   -6   -2   -6    3    2    0.000003    0.000000
   -6   -2   -6    1    3    0.000000   -0.000000
   -6   -2   -6    2    3    0.000003    0.000000
   -6   -2   -6    3    3   -0.000001   -0.000000
   -6   -2   -5    1    1    0.000001    0.000000
   -6   -2   -5    2    1    0.000000    0.000000
   -6   -2   -5    3    1   -0.000000    0.000000
   -6   -2   -5    1    2    0.000000   -0.000000
   -6   -2   -5    2    2    0.000001   -0.000000
   -6   -2   -5    3    2    0.000000   -0.000000
   -6   -2   -5    1    3   -0.000000    0.000000
   -6   -2   -5    2    3    0.000000   -0.000000
   -6   -2   -5    3    3   -0.000000    0.000000
   -6   -2   -4    1    1    0.000001   -0.000000
   -6   -2   -4    2    1    0.000000   -0.000000
   -6   -2   -4    3    1    0.000000   -0.000000
   -6   -2   -4    1    2    0.000000   -0.000000
   -6   -2   -4    2    2   -0.000001    0.000000
   -6   -2   -4    3    2   -0.000000    0.000000
   -6   -2   -4    1    3    0.000000   -0.000000
   -6   -2   -4    2    3   -0.000000   -0.000000
   -6   -2   -4    3    3    0.000000   -0.000000
   -6   -2   -3    1    1    0.000000   -0.000000
   -6   -2   -3    2    1    0.000000   -0.000000
   -6   -2   -3    3    1    0.000000   -0.000000
   -6   -2   -3    1    2    0.000000   -0.000000
   -6   -2   -3    2    2   -0.000000   -0.000000
   -6   -2   -3    3    2   -0.000000    0.000000
   -6   -2   -3    1    3    0.000000    0.000000
   -6   -2   -3    2    3   -0.000000    0.000000
   -6   -2   -3    3    3    0.000000    0.000000
   -6   -2   -2    1    1   -0.000000    0.000000
   -6   -2   -2    2    1    0.000000   -0.000000
   -6   -2   -2    3    1    0.000000   -0.000000
   -6   -2   -2    1    2    0.000000   -0.000000
   -6   -2   -2    2    2   -0.000000   -0.000000
   -6   -2   -2    3    2    0.000000   -0.000000
   -6   -2   -2    1    3    0.000000   -0.000000
   -6   -2   -2    2    3    0.000000    0.000000
   -6   -2   -2    3    3    0.000000   -0.000000
   -6   -1   -7    1    1    0.000000    0.000000
   -6   -1   -7    2    1    0.000000    0.000000
   -6   -1   -7    3    1   -0.000000    0.000000
   -6   -1   -7    1    2    0.000000    0.000000
   -6   -1   -7    2    2   -0.000020   -0.000000
   -6   -1   -7    3    2    0.000000    0.000000
   -6   -1   -7    1    3   -0.000000    0.000000
   -6   -1   -7    2    3   -0.000000   -0.000000
   -6   -1   -7    3    3   -0.000769    0.000000
   -6   -1   -6    1    1    0.000003   -0.000000
   -6   -1   -6    2    1   -0.000004    0.000000
   -6   -1   -6    3    1    0.000010    0.000000
   -6   -1   -6    1    2   -0.000004    0.000000
   -6   -1   -6    2    2   -0.000047    0.000000
   -6   -1   -6    3    2   -0.000006   -0.000000
   -6   -1   -6    1    3    0.000010    0.000000
   -6   -1   -6    2    3   -0.000006   -0.000000
   -6   -1   -6    3    3   -0.000052   -0.000000
   -6   -1   -5    1    1   -0.000002    0.000000
   -6   -1   -5    2    1   -0.000000   -0.000000
   -6   -1   -5    3    1    0.000001   -0.000000
   -6   -1   -5    1    2   -0.000000   -0.000000
   -6   -1   -5    2    2    0.000020   -0.000000
   -6   -1   -5    3    2    0.000000    0.000000
   -6   -1   -5    1    3    0.000001   -0.000000
   -6   -1   -5    2    3    0.000000   -0.000000
   -6   -1   -5    3    3    0.000001    0.000000
   -6   -1   -4    1    1    0.000001    0.000000
   -6   -1   -4    2    1   -0.000000    0.000000
   -6   -1   -4    3    1   -0.000000    0.000000
   -6   -1   -4    1    2   -0.000000   -0.000000
   -6   -1   -4    2    2    0.000001   -0.000000
   -6   -1   -4    3    2   -0.000000   -0.000000
   -6   -1   -4    1    3   -0.000000    0.000000
   -6   -1   -4    2    3   -0.000000    0.000000
   -6   -1   -4    3    3   -0.000000   -0.000000
   -6   -1   -3    1    1    0.000000   -0.000000
   -6   -1   -3    2    1    0.000000   -0.000000
   -6   -1   -3    3    1    0.000000   -0.000000
   -6   -1   -3    1    2    0.000000   -0.000000
   -6   -1   -3    2    2   -0.000001    0.000000
   -6   -1   -3    3    2   -0.000000    0.000000
   -6   -1   -3    1    3    0.000000   -0.000000
   -6   -1   -3    2    3   -0.000000   -0.000000
   -6   -1   -3    3    3    0.000000    0.000000
   -6   -1   -2    1    1    0.000000   -0.000000
   -6   -1   -2    2    1    0.000000    0.000000
   -6   -1   -2    3    1    0.000000   -0.000000
   -6   -1   -2    1    2    0.000000    0.000000
   -6   -1   -2    2    2   -0.000000   -0.000000
   -6   -1   -2    3    2   -0.000000    0.000000
   -6   -1   -2    1    3    0.000000    0.000000
   -6   -1   -2    2    3   -0.000000    0.000000
   -6   -1   -2    3    3    0.000000    0.000000
   -6   -1   -1    1    1   -0.000000    0.000000
   -6   -1   -1    2    1    0.000000   -0.000000
   -6   -1   -1    3    1    0.000000   -0.000000
   -6   -1   -1    1    2    0.000000    0.000000
   -6   -1   -1    2    2   -0.000000   -0.000000
   -6   -1   -1    3    2   -0.000000   -0.000000
   -6   -1   -1    1    3    0.000000    0.000000
   -6   -1   -1    2    3   -0.000000    0.000000
   -6   -1   -1    3    3   -0.000000   -0.000000
   -6    0   -6    1    1   -0.000003    0.000000
   -6    0   -6    2    1    0.000000   -0.000000
   -6    0   -6    3    1   -0.000000    0.000000
   -6    0   -6    1    2    0.000000    0.000000
   -6    0   -6    2    2   -0.000011    0.000000
   -6    0   -6    3    2   -0.000000   -0.000000
   -6    0   -6    1    3   -0.000000   -0.000000
   -6    0   -6    2    3   -0.000000    0.000000
   -6    0   -6    3    3   -0.000588    0.000000
   -6    0   -5    1    1    0.000003    0.000000
   -6    0   -5    2    1    0.000004   -0.000000
   -6    0   -5    3    1    0.000010   -0.000000
   -6    0   -5    1    2    0.000004    0.000000
   -6    0   -5    2    2   -0.000047   -0.000000
   -6    0   -5    3    2    0.000006    0.000000
   -6    0   -5    1    3    0.000010    0.000000
   -6    0   -5    2    3    0.000006   -0.000000
   -6    0   -5    3    3   -0.000052    0.000000
   -6    0   -4    1    1   -0.000003   -0.000000
   -6    0   -4    2    1   -0.000008    0.000000
   -6    0   -4    3    1    0.000000   -0.000000
   -6    0   -4    1    2   -0.000008   -0.000000
   -6    0   -4    2    2    0.000012   -0.000000
   -6    0   -4    3    2   -0.000003    0.000000
   -6    0   -4    1    3    0.000000   -0.000000
   -6    0   -4    2    3   -0.000003   -0.000000
   -6    0   -4    3    3   -0.000001   -0.000000
   -6    0   -3    1    1    0.000000    0.000000
   -6    0   -3    2    1   -0.000000   -0.000000
   -6    0   -3    3    1    0.000000    0.000000
   -6    0   -3    1    2   -0.000000   -0.000000
   -6    0   -3    2    2   -0.000001   -0.000000
   -6    0   -3    3    2   -0.000000   -0.000000
   -6    0   -3    1    3    0.000000    0.000000
   -6    0   -3    2    3   -0.000000   -0.000000
   -6    0   -3    3    3    0.000000    0.000000
   -6    0   -2    1    1   -0.000000    0.000000
   -6    0   -2    2    1    0.000001   -0.000000
   -6    0   -2    3    1    0.000000   -0.000000
   -6    0   -2    1    2    0.000001   -0.000000
   -6    0   -2    2    2   -0.000001    0.000000
   -6    0   -2    3    2   -0.000000    0.000000
   -6    0   -2    1    3    0.000000   -0.000000
   -6    0   -2    2    3   -0.000000   -0.000000
   -6    0   -2    3    3   -0.000000   -0.000000
   -6    0   -1    1    1   -0.000000    0.000000
   -6    0   -1    2    1    0.000000   -0.000000
   -6    0   -1    3    1    0.000000   -0.000000
   -6    0   -1    1    2    0.000000    0.000000
   -6    0   -1    2    2   -0.000000   -0.000000
   -6    0   -1    3    2   -0.000000    0.000000
   -6    0   -1    1    3    0.000000    0.000000
   -6    0   -1    2    3   -0.000000    0.000000
   -6    0   -1    3    3   -0.000000    0.000000
   -6    0    0    1    1    0.000000   -0.000000
   -6    0    0    2    1    0.000000    0.000000
   -6    0    0    3    1    0.000000   -0.000000
   -6    0    0    1    2    0.000000   -0.000000
   -6    0    0    2    2    0.000000   -0.000000
   -6    0    0    3    2   -0.000000   -0.000000
   -6    0    0    1    3    0.000000    0.000000
   -6    0    0    2    3   -0.000000    0.000000
   -6    0    0    3    3    0.000000   -0.000000
   -6    1   -5    1    1    0.000000   -0.000000
   -6    1   -5    2    1    0.000000   -0.000000
   -6    1   -5    3    1   -0.000000   -0.000000
   -6    1   -5    1    2    0.000000   -0.000000
   -6    1   -5    2    2   -0.000020    0.000000
   -6    1   -5    3    2   -0.000000    0.000000
   -6    1   -5    1    3   -0.000000   -0.000000
   -6    1   -5    2    3    0.000000   -0.000000
   -6    1   -5    3    3   -0.000769   -0.000000
   -6    1   -4    1    1    0.000001    0.000000
   -6    1   -4    2    1    0.000005    0.000000
   -6    1   -4    3    1    0.000013   -0.000000
   -6    1   -4    1    2    0.000005    0.000000
   -6    1   -4    2    2   -0.000011   -0.000000
   -6    1   -4    3    2    0.000006    0.000000
   -6    1   -4    1    3    0.000013    0.000000
   -6    1   -4    2    3    0.000006    0.000000
   -6    1   -4    3    3   -0.000009    0.000000
   -6    1   -3    1    1    0.000001    0.000000
   -6    1   -3    2    1   -0.000005   -0.000000
   -6    1   -3    3    1    0.000003    0.000000
   -6    1   -3    1    2   -0.000005   -0.000000
   -6    1   -3    2    2    0.000002    0.000000
   -6    1   -3    3    2   -0.000003   -0.000000
   -6    1   -3    1    3    0.000003   -0.000000
   -6    1   -3    2    3   -0.000003   -0.000000
   -6    1   -3    3    3    0.000003   -0.000000
   -6    1   -2    1    1   -0.000000   -0.000000
   -6    1   -2    2    1    0.000000    0.000000
   -6    1   -2    3    1    0.000001    0.000000
   -6    1   -2    1    2    0.000000   -0.000000
   -6    1   -2    2    2   -0.000002    0.000000
   -6    1   -2    3    2   -0.000001    0.000000
   -6    1   -2    1    3    0.000001    0.000000
   -6    1   -2    2    3   -0.000001    0.000000
   -6    1   -2    3    3    0.000000    0.000000
   -6    1   -1    1    1   -0.000000    0.000000
   -6    1   -1    2    1    0.000001   -0.000000
   -6    1   -1    3    1    0.000000   -0.000000
   -6    1   -1    1    2    0.000001    0.000000
   -6    1   -1    2    2   -0.000001   -0.000000
   -6    1   -1    3    2   -0.000000    0.000000
   -6    1   -1    1    3    0.000000    0.000000
   -6    1   -1    2    3   -0.000000   -0.000000
   -6    1   -1    3    3   -0.000000   -0.000000
   -6    1    0    1    1   -0.000000   -0.000000
   -6    1    0    2    1    0.000000    0.000000
   -6    1    0    3    1    0.000000   -0.000000
   -6    1    0    1    2    0.000000    0.000000
   -6    1    0    2    2   -0.000000    0.000000
   -6    1    0    3    2   -0.000000   -0.000000
   -6    1    0    1    3    0.000000    0.000000
   -6    1    0    2    3   -0.000000    0.000000
   -6    1    0    3    3   -0.000000    0.000000
   -6    2   -4    1    1    0.000000   -0.000000
   -6    2   -4    2    1    0.000000    0.000000
   -6    2   -4    3    1   -0.000000   -0.000000
   -6    2   -4    1    2   -0.000000    0.000000
   -6    2   -4    2    2   -0.000021    0.000000
   -6    2   -4    3    2   -0.000000    0.000000
   -6    2   -4    1    3   -0.000000   -0.000000
   -6    2   -4    2    3   -0.000000   -0.000000
   -6    2   -4    3    3   -0.000916   -0.000000
   -6    2   -3    1    1   -0.000001   -0.000000
   -6    2   -3    2    1    0.000001   -0.000000
   -6    2   -3    3    1    0.000008   -0.000000
   -6    2   -3    1    2    0.000001    0.000000
   -6    2   -3    2    2    0.000001    0.000000
   -6    2   -3    3    2   -0.000001    0.000000
   -6    2   -3    1    3    0.000008    0.000000
   -6    2   -3    2    3   -0.000001    0.000000
   -6    2   -3    3    3   -0.000022    0.000000
   -6    2   -2    1    1    0.000001    0.000000
   -6    2   -2    2    1   -0.000001    0.000000
   -6    2   -2    3    1    0.000003    0.000000
   -6    2   -2    1    2   -0.000001    0.000000
   -6    2   -2    2    2    0.000000    0.000000
   -6    2   -2    3    2   -0.000002   -0.000000
   -6    2   -2    1    3    0.000003   -0.000000
   -6    2   -2    2    3   -0.000002   -0.000000
   -6    2   -2    3    3    0.000002   -0.000000
   -6    2   -1    1    1   -0.000001   -0.000000
   -6    2   -1    2    1    0.000001   -0.000000
   -6    2   -1    3    1    0.000001    0.000000
   -6    2   -1    1    2    0.000001   -0.000000
   -6    2   -1    2    2   -0.000001    0.000000
   -6    2   -1    3    2   -0.000001    0.000000
   -6    2   -1    1    3    0.000001    0.000000
   -6    2   -1    2    3   -0.000001   -0.000000
   -6    2   -1    3    3    0.000000    0.000000
   -6    2    0    1    1   -0.000000    0.000000
   -6    2    0    2    1    0.000000   -0.000000
   -6    2    0    3    1    0.000000   -0.000000
   -6    2    0    1    2    0.000000   -0.000000
   -6    2    0    2    2   -0.000000   -0.000000
   -6    2    0    3    2   -0.000000    0.000000
   -6    2    0    1    3    0.000000    0.000000
   -6    2    0    2    3   -0.000000   -0.000000
   -6    2    0    3    3   -0.000000   -0.000000
   -6    2    1    1    1   -0.000000   -0.000000
   -6    2    1    2    1    0.000000   -0.000000
   -6    2    1    3    1    0.000000   -0.000000
   -6    2    1    1    2    0.000000   -0.000000
   -6    2    1    2    2   -0.000000    0.000000
   -6    2    1    3    2   -0.000000    0.000000
   -6    2    1    1    3    0.000000    0.000000
   -6    2    1    2    3   -0.000000   -0.000000
   -6    2    1    3    3    0.000000    0.000000
   -6    3   -3    1    1    0.000004    0.000000
   -6    3   -3    2    1    0.000000   -0.000000
   -6    3   -3    3    1   -0.000000   -0.000000
   -6    3   -3    1    2    0.000000   -0.000000
   -6    3   -3    2    2   -0.000005   -0.000000
   -6    3   -3    3    2   -0.000000    0.000000
   -6    3   -3    1    3    0.000000   -0.000000
   -6    3   -3    2    3   -0.000000   -0.000000
   -6    3   -3    3    3   -0.000884   -0.000000
   -6    3   -2    1    1   -0.000002    0.000000
   -6    3   -2    2    1   -0.000001    0.000000
   -6    3   -2    3    1    0.000005   -0.000000
   -6    3   -2    1    2   -0.000001    0.000000
   -6    3   -2    2    2   -0.000002    0.000000
   -6    3   -2    3    2   -0.000005    0.000000
   -6    3   -2    1    3    0.000005   -0.000000
   -6    3   -2    2    3   -0.000005    0.000000
   -6    3   -2    3    3   -0.000023    0.000000
   -6    3   -1    1    1    0.000000    0.000000
   -6    3   -1    2    1    0.000000   -0.000000
   -6    3   -1    3    1    0.000002    0.000000
   -6    3   -1    1    2    0.000000   -0.000000
   -6    3   -1    2    2   -0.000000    0.000000
   -6    3   -1    3    2   -0.000002   -0.000000
   -6    3   -1    1    3    0.000002    0.000000
   -6    3   -1    2    3   -0.000002   -0.000000
   -6    3   -1    3    3    0.000000   -0.000000
   -6    3    0    1    1   -0.000000    0.000000
   -6    3    0    2    1    0.000000    0.000000
   -6    3    0    3    1    0.000001   -0.000000
   -6    3    0    1    2    0.000000   -0.000000
   -6    3    0    2    2   -0.000000   -0.000000
   -6    3    0    3    2   -0.000001    0.000000
   -6    3    0    1    3    0.000001    0.000000
   -6    3    0    2    3   -0.000001    0.000000
   -6    3    0    3    3    0.000000    0.000000
   -6    3    1    1    1   -0.000000    0.000000
   -6    3    1    2    1    0.000000   -0.000000
   -6    3    1    3    1    0.000000   -0.000000
   -6    3    1    1    2    0.000000    0.000000
   -6    3    1    2    2   -0.000000   -0.000000
   -6    3    1    3    2   -0.000000    0.000000
   -6    3    1    1    3    0.000000    0.000000
   -6    3    1    2    3   -0.000000   -0.000000
   -6    3    1    3    3    0.000000   -0.000000
   -6    3    2    1    1   -0.000000   -0.000000
   -6    3    2    2    1    0.000000   -0.000000
   -6    3    2    3    1    0.000000   -0.000000
   -6    3    2    1    2    0.000000   -0.000000
[...]
    7    4    9    1    3   -0.000000    0.000000
    7    4    9    2    3    0.000001   -0.000000
    7    4    9    3    3    0.000003   -0.000000
    7    5    6    1    1   -0.000000   -0.000000
    7    5    6    2    1   -0.000000   -0.000000
    7    5    6    3    1    0.000000    0.000000
    7    5    6    1    2   -0.000000    0.000000
    7    5    6    2    2   -0.000000    0.000000
    7    5    6    3    2    0.000000    0.000000
    7    5    6    1    3    0.000000    0.000000
    7    5    6    2    3    0.000000   -0.000000
    7    5    6    3    3    0.000000    0.000000
    7    5    7    1    1   -0.000000   -0.000000
    7    5    7    2    1   -0.000000   -0.000000
    7    5    7    3    1    0.000000   -0.000000
    7    5    7    1    2   -0.000000    0.000000
    7    5    7    2    2   -0.000000   -0.000000
    7    5    7    3    2    0.000000    0.000000
    7    5    7    1    3    0.000000    0.000000
    7    5    7    2    3    0.000000   -0.000000
    7    5    7    3    3    0.000000    0.000000
    7    5    8    1    1   -0.000000    0.000000
    7    5    8    2    1   -0.000000   -0.000000
    7    5    8    3    1    0.000000   -0.000000
    7    5    8    1    2   -0.000000    0.000000
    7    5    8    2    2   -0.000000   -0.000000
    7    5    8    3    2    0.000000   -0.000000
    7    5    8    1    3    0.000000    0.000000
    7    5    8    2    3    0.000000    0.000000
    7    5    8    3    3    0.000000   -0.000000
    7    5    9    1    1    0.000000   -0.000000
    7    5    9    2    1   -0.000000    0.000000
    7    5    9    3    1    0.000000   -0.000000
    7    5    9    1    2   -0.000000   -0.000000
    7    5    9    2    2    0.000000    0.000000
    7    5    9    3    2    0.000000    0.000000
    7    5    9    1    3    0.000000   -0.000000
    7    5    9    2    3    0.000000    0.000000
    7    5    9    3    3    0.000001    0.000000
    7    5   10    1    1    0.000000    0.000000
    7    5   10    2    1   -0.000000    0.000000
    7    5   10    3    1    0.000000   -0.000000
    7    5   10    1    2   -0.000000    0.000000
    7    5   10    2    2    0.000000    0.000000
    7    5   10    3    2    0.000001   -0.000000
    7    5   10    1    3    0.000000    0.000000
    7    5   10    2    3    0.000001   -0.000000
    7    5   10    3    3    0.000001   -0.000000
    7    6    8    1    1   -0.000000   -0.000000
    7    6    8    2    1   -0.000000    0.000000
    7    6    8    3    1    0.000000   -0.000000
    7    6    8    1    2   -0.000000    0.000000
    7    6    8    2    2   -0.000000    0.000000
    7    6    8    3    2    0.000000    0.000000
    7    6    8    1    3    0.000000    0.000000
    7    6    8    2    3    0.000000   -0.000000
    7    6    8    3    3    0.000000   -0.000000
    7    6    9    1    1   -0.000000    0.000000
    7    6    9    2    1   -0.000000   -0.000000
    7    6    9    3    1    0.000000   -0.000000
    7    6    9    1    2   -0.000000   -0.000000
    7    6    9    2    2   -0.000000    0.000000
    7    6    9    3    2    0.000000   -0.000000
    7    6    9    1    3    0.000000    0.000000
    7    6    9    2    3    0.000000    0.000000
    7    6    9    3    3    0.000000   -0.000000
    7    6   10    1    1   -0.000000    0.000000
    7    6   10    2    1   -0.000000   -0.000000
    7    6   10    3    1    0.000000   -0.000000
    7    6   10    1    2   -0.000000   -0.000000
    7    6   10    2    2   -0.000000    0.000000
    7    6   10    3    2    0.000000    0.000000
    7    6   10    1    3    0.000000   -0.000000
    7    6   10    2    3    0.000000    0.000000
    7    6   10    3    3   -0.000000   -0.000000
    7    6   11    1    1   -0.000000    0.000000
    7    6   11    2    1    0.000000    0.000000
    7    6   11    3    1   -0.000000   -0.000000
    7    6   11    1    2    0.000000    0.000000
    7    6   11    2    2   -0.000000    0.000000
    7    6   11    3    2    0.000000   -0.000000
    7    6   11    1    3   -0.000000    0.000000
    7    6   11    2    3    0.000000    0.000000
    7    6   11    3    3   -0.000002   -0.000000
    7    7    9    1    1   -0.000000    0.000000
    7    7    9    2    1   -0.000000   -0.000000
    7    7    9    3    1    0.000000   -0.000000
    7    7    9    1    2   -0.000000   -0.000000
    7    7    9    2    2   -0.000000    0.000000
    7    7    9    3    2    0.000000   -0.000000
    7    7    9    1    3    0.000000    0.000000
    7    7    9    2    3    0.000000   -0.000000
    7    7    9    3    3    0.000000    0.000000
    7    7   10    1    1   -0.000000   -0.000000
    7    7   10    2    1   -0.000000   -0.000000
    7    7   10    3    1    0.000000   -0.000000
    7    7   10    1    2   -0.000000   -0.000000
    7    7   10    2    2   -0.000000    0.000000
    7    7   10    3    2    0.000000    0.000000
    7    7   10    1    3    0.000000    0.000000
    7    7   10    2    3    0.000000    0.000000
    7    7   10    3    3    0.000000    0.000000
    7    7   11    1    1   -0.000000    0.000000
    7    7   11    2    1   -0.000000   -0.000000
    7    7   11    3    1    0.000000   -0.000000
    7    7   11    1    2   -0.000000    0.000000
    7    7   11    2    2   -0.000000   -0.000000
    7    7   11    3    2    0.000000   -0.000000
    7    7   11    1    3    0.000000   -0.000000
    7    7   11    2    3    0.000000    0.000000
    7    7   11    3    3   -0.000001   -0.000000
    7    7   12    1    1   -0.000000    0.000000
    7    7   12    2    1    0.000000   -0.000000
    7    7   12    3    1   -0.000000   -0.000000
    7    7   12    1    2    0.000000    0.000000
    7    7   12    2    2   -0.000000   -0.000000
    7    7   12    3    2   -0.000000   -0.000000
    7    7   12    1    3   -0.000000    0.000000
    7    7   12    2    3   -0.000000    0.000000
    7    7   12    3    3   -0.000003    0.000000
    7    8   10    1    1   -0.000000    0.000000
    7    8   10    2    1   -0.000000   -0.000000
    7    8   10    3    1    0.000000   -0.000000
    7    8   10    1    2   -0.000000   -0.000000
    7    8   10    2    2   -0.000000   -0.000000
    7    8   10    3    2    0.000000   -0.000000
    7    8   10    1    3    0.000000    0.000000
    7    8   10    2    3    0.000000    0.000000
    7    8   10    3    3   -0.000000   -0.000000
    7    8   11    1    1   -0.000000   -0.000000
    7    8   11    2    1   -0.000000    0.000000
    7    8   11    3    1    0.000000   -0.000000
    7    8   11    1    2   -0.000000   -0.000000
    7    8   11    2    2   -0.000000   -0.000000
    7    8   11    3    2    0.000000    0.000000
    7    8   11    1    3    0.000000    0.000000
    7    8   11    2    3    0.000000    0.000000
    7    8   11    3    3   -0.000000    0.000000
    8   -4    0    1    1   -0.000000    0.000000
    8   -4    0    2    1   -0.000000   -0.000000
    8   -4    0    3    1    0.000000   -0.000000
    8   -4    0    1    2   -0.000000    0.000000
    8   -4    0    2    2   -0.000000   -0.000000
    8   -4    0    3    2    0.000000    0.000000
    8   -4    0    1    3    0.000000    0.000000
    8   -4    0    2    3    0.000000    0.000000
    8   -4    0    3    3   -0.000000    0.000000
    8   -3    0    1    1   -0.000000   -0.000000
    8   -3    0    2    1   -0.000000    0.000000
    8   -3    0    3    1   -0.000000   -0.000000
    8   -3    0    1    2   -0.000000    0.000000
    8   -3    0    2    2   -0.000000   -0.000000
    8   -3    0    3    2    0.000000   -0.000000
    8   -3    0    1    3   -0.000000    0.000000
    8   -3    0    2    3    0.000000   -0.000000
    8   -3    0    3    3    0.000000   -0.000000
    8   -3    1    1    1   -0.000000    0.000000
    8   -3    1    2    1    0.000000   -0.000000
    8   -3    1    3    1   -0.000000   -0.000000
    8   -3    1    1    2    0.000000    0.000000
    8   -3    1    2    2   -0.000000   -0.000000
    8   -3    1    3    2   -0.000000    0.000000
    8   -3    1    1    3   -0.000000    0.000000
    8   -3    1    2    3   -0.000000    0.000000
    8   -3    1    3    3   -0.000000    0.000000
    8   -2    1    1    1   -0.000000   -0.000000
    8   -2    1    2    1    0.000000    0.000000
    8   -2    1    3    1    0.000000   -0.000000
    8   -2    1    1    2    0.000000    0.000000
    8   -2    1    2    2   -0.000000    0.000000
    8   -2    1    3    2   -0.000000   -0.000000
    8   -2    1    1    3    0.000000    0.000000
    8   -2    1    2    3   -0.000000    0.000000
    8   -2    1    3    3   -0.000000   -0.000000
    8   -2    2    1    1   -0.000000    0.000000
    8   -2    2    2    1    0.000000   -0.000000
    8   -2    2    3    1   -0.000000   -0.000000
    8   -2    2    1    2    0.000000   -0.000000
    8   -2    2    2    2   -0.000000   -0.000000
    8   -2    2    3    2   -0.000000   -0.000000
    8   -2    2    1    3   -0.000000    0.000000
    8   -2    2    2    3   -0.000000    0.000000
    8   -2    2    3    3    0.000000    0.000000
    8   -1    2    1    1   -0.000000   -0.000000
    8   -1    2    2    1    0.000000   -0.000000
    8   -1    2    3    1    0.000000   -0.000000
    8   -1    2    1    2    0.000000    0.000000
    8   -1    2    2    2   -0.000000    0.000000
    8   -1    2    3    2   -0.000000   -0.000000
    8   -1    2    1    3    0.000000    0.000000
    8   -1    2    2    3   -0.000000   -0.000000
    8   -1    2    3    3   -0.000000   -0.000000
    8   -1    3    1    1   -0.000000    0.000000
    8   -1    3    2    1    0.000000   -0.000000
    8   -1    3    3    1   -0.000000   -0.000000
    8   -1    3    1    2    0.000000    0.000000
    8   -1    3    2    2   -0.000000   -0.000000
    8   -1    3    3    2   -0.000000    0.000000
    8   -1    3    1    3   -0.000000    0.000000
    8   -1    3    2    3   -0.000000   -0.000000
    8   -1    3    3    3    0.000000   -0.000000
    8    0    3    1    1    0.000000   -0.000000
    8    0    3    2    1   -0.000000    0.000000
    8    0    3    3    1    0.000000   -0.000000
    8    0    3    1    2   -0.000000    0.000000
    8    0    3    2    2   -0.000000    0.000000
    8    0    3    3    2   -0.000000   -0.000000
    8    0    3    1    3    0.000000    0.000000
    8    0    3    2    3   -0.000000    0.000000
    8    0    3    3    3   -0.000000   -0.000000
    8    0    4    1    1   -0.000000    0.000000
    8    0    4    2    1    0.000000    0.000000
    8    0    4    3    1   -0.000000   -0.000000
    8    0    4    1    2    0.000000   -0.000000
    8    0    4    2    2    0.000000    0.000000
    8    0    4    3    2   -0.000000    0.000000
    8    0    4    1    3   -0.000000    0.000000
    8    0    4    2    3   -0.000000   -0.000000
    8    0    4    3    3    0.000000   -0.000000
    8    1    4    1    1   -0.000000   -0.000000
    8    1    4    2    1    0.000000   -0.000000
    8    1    4    3    1    0.000000   -0.000000
    8    1    4    1    2    0.000000    0.000000
    8    1    4    2    2   -0.000000    0.000000
    8    1    4    3    2   -0.000000   -0.000000
    8    1    4    1    3    0.000000    0.000000
    8    1    4    2    3   -0.000000   -0.000000
    8    1    4    3    3   -0.000000   -0.000000
    8    1    5    1    1   -0.000000    0.000000
    8    1    5    2    1   -0.000000   -0.000000
    8    1    5    3    1   -0.000000   -0.000000
    8    1    5    1    2   -0.000000    0.000000
    8    1    5    2    2    0.000000    0.000000
    8    1    5    3    2   -0.000000    0.000000
    8    1    5    1    3   -0.000000    0.000000
    8    1    5    2    3   -0.000000   -0.000000
    8    1    5    3    3   -0.000000   -0.000000
    8    2    4    1    1    0.000000   -0.000000
    8    2    4    2    1    0.000000    0.000000
    8    2    4    3    1   -0.000000    0.000000
    8    2    4    1    2    0.000000   -0.000000
    8    2    4    2    2    0.000000    0.000000
    8    2    4    3    2    0.000000   -0.000000
    8    2    4    1    3   -0.000000    0.000000
    8    2    4    2    3    0.000000    0.000000
    8    2    4    3    3   -0.000000    0.000000
    8    2    5    1    1   -0.000000    0.000000
    8    2    5    2    1   -0.000000    0.000000
    8    2    5    3    1   -0.000000   -0.000000
    8    2    5    1    2   -0.000000    0.000000
    8    2    5    2    2    0.000000   -0.000000
    8    2    5    3    2   -0.000000   -0.000000
    8    2    5    1    3   -0.000000   -0.000000
    8    2    5    2    3   -0.000000   -0.000000
    8    2    5    3    3   -0.000000   -0.000000
    8    2    6    1    1   -0.000000    0.000000
    8    2    6    2    1   -0.000000   -0.000000
    8    2    6    3    1   -0.000000   -0.000000
    8    2    6    1    2   -0.000000   -0.000000
    8    2    6    2    2    0.000001    0.000000
    8    2    6    3    2   -0.000000    0.000000
    8    2    6    1    3   -0.000000    0.000000
    8    2    6    2    3   -0.000000   -0.000000
    8    2    6    3    3   -0.000000    0.000000
    8    3    5    1    1   -0.000000   -0.000000
    8    3    5    2    1   -0.000000    0.000000
    8    3    5    3    1   -0.000000    0.000000
    8    3    5    1    2   -0.000000    0.000000
    8    3    5    2    2   -0.000000    0.000000
    8    3    5    3    2   -0.000000    0.000000
    8    3    5    1    3   -0.000000    0.000000
    8    3    5    2    3   -0.000000    0.000000
    8    3    5    3    3   -0.000000    0.000000
    8    3    6    1    1   -0.000000    0.000000
    8    3    6    2    1    0.000000   -0.000000
    8    3    6    3    1   -0.000000   -0.000000
    8    3    6    1    2    0.000000    0.000000
    8    3    6    2    2    0.000000   -0.000000
    8    3    6    3    2    0.000000   -0.000000
    8    3    6    1    3   -0.000000   -0.000000
    8    3    6    2    3    0.000000   -0.000000
    8    3    6    3    3   -0.000000    0.000000
    8    3    7    1    1   -0.000000   -0.000000
    8    3    7    2    1   -0.000000   -0.000000
    8    3    7    3    1   -0.000000   -0.000000
    8    3    7    1    2   -0.000000   -0.000000
    8    3    7    2    2    0.000000    0.000000
    8    3    7    3    2    0.000000    0.000000
    8    3    7    1    3    0.000000    0.000000
    8    3    7    2    3    0.000000   -0.000000
    8    3    7    3    3   -0.000000   -0.000000
    8    4    6    1    1    0.000000   -0.000000
    8    4    6    2    1   -0.000000   -0.000000
    8    4    6    3    1   -0.000000    0.000000
    8    4    6    1    2   -0.000000    0.000000
    8    4    6    2    2    0.000000   -0.000000
    8    4    6    3    2   -0.000000    0.000000
    8    4    6    1    3   -0.000000    0.000000
    8    4    6    2    3   -0.000000    0.000000
    8    4    6    3    3   -0.000000    0.000000
    8    4    7    1    1   -0.000000    0.000000
    8    4    7    2    1   -0.000000    0.000000
    8    4    7    3    1    0.000000   -0.000000
    8    4    7    1    2   -0.000000    0.000000
    8    4    7    2    2   -0.000000   -0.000000
    8    4    7    3    2    0.000000    0.000000
    8    4    7    1    3    0.000000   -0.000000
    8    4    7    2    3    0.000000   -0.000000
    8    4    7    3    3   -0.000000    0.000000
    8    4    8    1    1   -0.000000   -0.000000
    8    4    8    2    1    0.000000    0.000000
    8    4    8    3    1    0.000000   -0.000000
    8    4    8    1    2    0.000000   -0.000000
    8    4    8    2    2    0.000000    0.000000
    8    4    8    3    2    0.000000   -0.000000
    8    4    8    1    3    0.000000    0.000000
    8    4    8    2    3    0.000000    0.000000
    8    4    8    3    3    0.000000   -0.000000
    8    5    8    1    1    0.000000   -0.000000
    8    5    8    2    1    0.000000   -0.000000
    8    5    8    3    1    0.000000   -0.000000
    8    5    8    1    2    0.000000    0.000000
    8    5    8    2    2   -0.000000    0.000000
    8    5    8    3    2    0.000000    0.000000
    8    5    8    1    3    0.000000   -0.000000
    8    5    8    2    3    0.000000   -0.000000
    8    5    8    3    3   -0.000000    0.000000
    8    5    9    1    1   -0.000000   -0.000000
    8    5    9    2    1    0.000000   -0.000000
    8    5    9    3    1    0.000000   -0.000000
    8    5    9    1    2    0.000000   -0.000000
    8    5    9    2    2   -0.000000    0.000000
    8    5    9    3    2    0.000000   -0.000000
    8    5    9    1    3    0.000000    0.000000
    8    5    9    2    3    0.000000    0.000000
    8    5    9    3    3    0.000000   -0.000000
    8    6    9    1    1   -0.000000   -0.000000
    8    6    9    2    1   -0.000000    0.000000
    8    6    9    3    1    0.000000   -0.000000
    8    6    9    1    2   -0.000000    0.000000
    8    6    9    2    2   -0.000000    0.000000
    8    6    9    3    2    0.000000    0.000000
    8    6    9    1    3    0.000000   -0.000000
    8    6    9    2    3    0.000000   -0.000000
    8    6    9    3    3   -0.000000    0.000000
    8    6   10    1    1   -0.000000   -0.000000
    8    6   10    2    1    0.000000    0.000000
    8    6   10    3    1    0.000000   -0.000000
    8    6   10    1    2    0.000000    0.000000
    8    6   10    2    2   -0.000000    0.000000
    8    6   10    3    2    0.000000   -0.000000
    8    6   10    1    3    0.000000    0.000000
    8    6   10    2    3    0.000000    0.000000
    8    6   10    3    3    0.000000   -0.000000
    8    7   10    1    1   -0.000000   -0.000000
    8    7   10    2    1   -0.000000    0.000000
    8    7   10    3    1    0.000000   -0.000000
    8    7   10    1    2   -0.000000    0.000000
    8    7   10    2    2   -0.000000    0.000000
    8    7   10    3    2    0.000000   -0.000000
    8    7   10    1    3    0.000000    0.000000
    8    7   10    2    3    0.000000   -0.000000
    8    7   10    3    3   -0.000000    0.000000
    8    7   11    1    1   -0.000000    0.000000
    8    7   11    2    1   -0.000000    0.000000
    8    7   11    3    1    0.000000   -0.000000
    8    7   11    1    2   -0.000000    0.000000
    8    7   11    2    2   -0.000000   -0.000000
    8    7   11    3    2    0.000000    0.000000
    8    7   11    1    3    0.000000    0.000000
    8    7   11    2    3    0.000000    0.000000
    8    7   11    3    3   -0.000000   -0.000000
    8    8   11    1    1   -0.000000   -0.000000
    8    8   11    2    1    0.000000    0.000000
    8    8   11    3    1   -0.000000   -0.000000
    8    8   11    1    2    0.000000    0.000000
    8    8   11    2    2   -0.000000   -0.000000
    8    8   11    3    2   -0.000000   -0.000000
    8    8   11    1    3   -0.000000    0.000000
    8    8   11    2    3   -0.000000    0.000000
    8    8   11    3    3    0.000000    0.000000
    8    8   12    1    1   -0.000000    0.000000
    8    8   12    2    1   -0.000000   -0.000000
    8    8   12    3    1    0.000000   -0.000000
    8    8   12    1    2   -0.000000    0.000000
    8    8   12    2    2   -0.000000   -0.000000
    8    8   12    3    2    0.000000    0.000000
    8    8   12    1    3    0.000000    0.000000
    8    8   12    2    3    0.000000    0.000000
    8    8   12    3    3   -0.000000    0.000000
    9    3    6    1    1    0.000000    0.000000
    9    3    6    2    1   -0.000000    0.000000
    9    3    6    3    1    0.000000    0.000000
    9    3    6    1    2   -0.000000    0.000000
    9    3    6    2    2    0.000000    0.000000
    9    3    6    3    2   -0.000000    0.000000
    9    3    6    1    3    0.000000    0.000000
    9    3    6    2    3   -0.000000    0.000000
    9    3    6    3    3    0.000000    0.000000
