unknown system                          
   2.98780000000000     
    -0.500000    0.500000    0.500000
     0.500000   -0.500000    0.500000
     0.500000    0.500000   -0.500000
   V 
     1
Direct
  0.000000  0.000000  0.000000
 
   40   40   40
  160.41      158.47      152.77      143.57      131.27      116.40      99.631      81.824      64.058      47.535    
  33.391      22.432      14.915      10.452      8.1352      6.8249      5.9216      5.3290      4.9531      4.7525    
  4.6853      4.7525      4.9531      5.3290      5.9216      6.8249      8.1352      10.452      14.915      22.432    
  33.391      47.535      64.058      81.824      99.631      116.40      131.27      143.57      152.77      158.47    
  158.47      157.83      153.33      145.18      133.76      119.61      103.38      85.910      68.218      51.457    
  36.763      25.019      16.640      11.422      8.6171      7.1196      6.1220      5.4526      5.0227      4.7763    
  4.6707      4.6950      4.8474      5.1572      5.6641      6.4478      7.5847      9.4137      12.959      19.269    
  28.927      41.898      57.546      74.825      92.539      109.57      125.00      138.12      148.36      155.25    
  152.77      153.33      149.95      142.80      132.27      118.91      103.44      86.662      69.549      53.162    
  38.566      26.633      17.852      12.163      8.9792      7.3068      6.2426      5.5143      5.0457      4.7623    
  4.6261      4.6095      4.7153      4.9546      5.3724      6.0225      6.9952      8.4268      11.053      15.978    
  23.968      35.248      49.425      65.633      82.757      99.680      115.42      129.20      140.35      148.36    
  143.57      145.18      142.80      136.57      126.90      114.41      99.841      84.045      67.932      52.455    
  38.556      27.023      18.339      12.534      9.1588      7.3684      6.2667      5.5057      5.0140      4.7083    
  4.5502      4.5023      4.5648      4.7392      5.0661      5.5870      6.3883      7.5382      9.4024      12.955    
  19.117      28.351      40.566      55.145      71.142      87.491      103.18      117.33      129.20      138.12    
  131.28      133.76      132.27      126.90      118.10      106.53      93.012      78.424      63.634      49.489    
  36.773      26.145      18.016      12.452      9.1075      7.2933      6.1877      5.4235      4.9249      4.6141    
  4.4434      4.3775      4.4028      4.5242      4.7642      5.1694      5.7984      6.7329      8.0849      10.472    
  14.861      21.914      31.837      44.316      58.646      73.887      89.050      103.18      115.42      125.01    
  116.40      119.61      118.91      114.41      106.53      95.993      83.679      70.487      57.253      44.723    
  33.527      24.165      16.945      11.918      8.8144      7.0795      6.0110      5.2694      4.7839      4.4802    
  4.3106      4.2354      4.2377      4.3147      4.4849      4.7839      5.2645      5.9956      7.0429      8.6238    
  11.498      16.468      23.981      34.042      46.231      59.815      73.887      87.491      99.681      109.57    
  99.633      103.38      103.44      99.842      93.012      83.679      72.741      61.105      49.580      38.818    
  29.313      21.414      15.313      11.017      8.3096      6.7424      5.7494      5.0543      4.5992      4.3138    
  4.1556      4.0803      4.0716      4.1169      4.2338      4.4447      4.8011      5.3510      6.1690      7.3074    
  9.1002      12.302      17.532      25.069      34.794      46.231      58.647      71.143      82.759      92.540    
  81.826      85.911      86.663      84.045      78.424      70.487      61.105      51.165      41.431      32.479    
  24.692      18.293      13.372      9.8894      7.6554      6.3119      5.4218      4.7951      4.3822      4.1259    
  3.9838      3.9179      3.9050      3.9342      4.0112      4.1585      4.4109      4.8177      5.4293      6.3060    
  7.5097      9.4312      12.742      17.902      25.069      34.043      44.317      55.146      65.635      74.827    
  64.060      68.220      69.550      67.932      63.634      57.253      49.580      41.431      33.510      26.322    
  20.167      15.179      11.377      8.6834      6.9294      5.8234      5.0537      4.5093      4.1492      3.9266    
  3.8055      3.7515      3.7426      3.7638      3.8184      3.9191      4.0969      4.3869      4.8368      5.4904    
  6.3963      7.6207      9.5507      12.742      17.532      23.981      31.837      40.567      49.426      57.548    
  47.537      51.458      53.163      52.456      49.489      44.723      38.818      32.479      26.322      20.780    
  16.097      12.353      9.5268      7.5263      6.2005      5.3138      4.6706      4.2167      3.9138      3.7283    
  3.6286      3.5884      3.5855      3.6070      3.6497      3.7231      3.8475      4.0532      4.3752      4.8529    
  5.5252      6.4277      7.6207      9.4312      12.302      16.468      21.914      28.352      35.249      41.900    
  33.392      36.763      38.566      38.557      36.774      33.527      29.313      24.692      20.167      16.097    
  12.679      9.9714      7.9412      6.5006      5.5173      4.8152      4.2974      3.9333      3.6895      3.5407    
  3.4621      3.4342      3.4383      3.4629      3.5023      3.5613      3.6532      3.8000      4.0290      4.3715    
  4.8594      5.5252      6.3963      7.5098      9.1003      11.498      14.861      19.117      23.968      28.927    
  22.433      25.020      26.633      27.023      26.145      24.165      21.414      18.293      15.179      12.353    
  9.9714      8.0840      6.6633      5.6412      4.9055      4.3554      3.9542      3.6726      3.4854      3.3710    
  3.3124      3.2944      3.3045      3.3325      3.3730      3.4267      3.5014      3.6115      3.7769      4.0216    
  4.3715      4.8529      5.4905      6.3061      7.3076      8.6239      10.473      12.955      15.978      19.270    
  14.915      16.640      17.852      18.339      18.016      16.945      15.313      13.372      11.377      9.5268    
  7.9413      6.6633      5.6819      4.9429      4.3787      3.9567      3.6539      3.4444      3.3068      3.2237    
  3.1826      3.1731      3.1871      3.2175      3.2601      3.3135      3.3812      3.4715      3.5977      3.7769    
  4.0291      4.3753      4.8369      5.4294      6.1692      7.0431      8.0851      9.4025      11.053      12.959    
  10.452      11.422      12.163      12.534      12.452      11.918      11.017      9.8894      8.6834      7.5263    
  6.5006      5.6413      4.9429      4.3826      3.9489      3.6298      3.4049      3.2534      3.1564      3.1000    
  3.0739      3.0715      3.0878      3.1193      3.1629      3.2174      3.2838      3.3660      3.4715      3.6115    
  3.8000      4.0532      4.3869      4.8178      5.3511      5.9958      6.7331      7.5384      8.4270      9.4139    
  8.1354      8.6173      8.9793      9.1589      9.1075      8.8144      8.3096      7.6554      6.9294      6.2005    
  5.5173      4.9055      4.3787      3.9489      3.6180      3.3765      3.2097      3.1008      3.0347      2.9990    
  2.9855      2.9890      3.0070      3.0380      3.0812      3.1363      3.2033      3.2838      3.3811      3.5014    
  3.6531      3.8475      4.0968      4.4109      4.8012      5.2646      5.7985      6.3885      6.9954      7.5850    
  6.8251      7.1198      7.3069      7.3685      7.2933      7.0795      6.7424      6.3119      5.8234      5.3138    
  4.8151      4.3554      3.9567      3.6298      3.3764      3.1917      3.0654      2.9855      2.9400      2.9189    
  2.9148      2.9233      2.9427      2.9730      3.0147      3.0689      3.1363      3.2174      3.3134      3.4267    
  3.5613      3.7230      3.9191      4.1584      4.4447      4.7839      5.1694      5.5871      6.0227      6.4480    
  5.9217      6.1221      6.2427      6.2668      6.1877      6.0110      5.7494      5.4217      5.0536      4.6705    
  4.2974      3.9541      3.6538      3.4049      3.2096      3.0654      2.9662      2.9040      2.8705      2.8577    
  2.8594      2.8716      2.8925      2.9222      2.9623      3.0147      3.0812      3.1628      3.2601      3.3730    
  3.5022      3.6496      3.8183      4.0111      4.2337      4.4848      4.7641      5.0661      5.3724      5.6642    
  5.3290      5.4526      5.5144      5.5058      5.4236      5.2695      5.0543      4.7951      4.5093      4.2166    
  3.9332      3.6725      3.4443      3.2533      3.1008      2.9855      2.9040      2.8518      2.8235      2.8136    
  2.8175      2.8314      2.8533      2.8831      2.9222      2.9729      3.0380      3.1192      3.2175      3.3324    
  3.4628      3.6069      3.7637      3.9341      4.1168      4.3146      4.5241      4.7391      4.9545      5.1572    
  4.9530      5.0227      5.0457      5.0140      4.9250      4.7840      4.5992      4.3822      4.1491      3.9138    
  3.6894      3.4853      3.3067      3.1564      3.0346      2.9400      2.8705      2.8235      2.7961      2.7853    
  2.7879      2.8012      2.8232      2.8533      2.8925      2.9427      3.0069      3.0878      3.1870      3.3045    
  3.4382      3.5855      3.7425      3.9049      4.0715      4.2376      4.4027      4.5646      4.7152      4.8473    
  4.7524      4.7763      4.7623      4.7083      4.6141      4.4802      4.3138      4.1259      3.9265      3.7283    
  3.5407      3.3709      3.2237      3.1000      2.9990      2.9189      2.8577      2.8136      2.7853      2.7712    
  2.7701      2.7805      2.8012      2.8314      2.8716      2.9233      2.9890      3.0715      3.1731      3.2944    
  3.4341      3.5883      3.7514      3.9179      4.0803      4.2353      4.3774      4.5022      4.6094      4.6948    
  4.6852      4.6705      4.6260      4.5502      4.4434      4.3106      4.1555      3.9838      3.8055      3.6286    
  3.4621      3.3123      3.1825      3.0739      2.9854      2.9147      2.8594      2.8175      2.7879      2.7701    
  2.7642      2.7701      2.7879      2.8175      2.8594      2.9147      2.9854      3.0739      3.1825      3.3123    
  3.4621      3.6286      3.8055      3.9838      4.1555      4.3106      4.4434      4.5502      4.6260      4.6705    
  4.7524      4.6948      4.6094      4.5022      4.3774      4.2353      4.0803      3.9179      3.7514      3.5883    
  3.4341      3.2944      3.1731      3.0715      2.9890      2.9233      2.8716      2.8314      2.8012      2.7805    
  2.7701      2.7712      2.7853      2.8136      2.8577      2.9189      2.9990      3.1000      3.2237      3.3709    
  3.5407      3.7283      3.9265      4.1259      4.3138      4.4802      4.6141      4.7083      4.7623      4.7763    
  4.9530      4.8473      4.7152      4.5646      4.4027      4.2376      4.0715      3.9049      3.7425      3.5855    
  3.4382      3.3045      3.1870      3.0878      3.0069      2.9427      2.8925      2.8533      2.8232      2.8012    
  2.7879      2.7853      2.7961      2.8235      2.8705      2.9400      3.0346      3.1564      3.3067      3.4853    
  3.6894      3.9138      4.1491      4.3822      4.5992      4.7840      4.9250      5.0140      5.0457      5.0227    
  5.3290      5.1572      4.9545      4.7391      4.5241      4.3146      4.1168      3.9341      3.7637      3.6069    
  3.4628      3.3324      3.2175      3.1192      3.0380      2.9729      2.9222      2.8831      2.8533      2.8314    
  2.8175      2.8136      2.8235      2.8518      2.9040      2.9855      3.1008      3.2533      3.4443      3.6725    
  3.9332      4.2166      4.5093      4.7951      5.0543      5.2695      5.4236      5.5058      5.5144      5.4526    
  5.9217      5.6642      5.3724      5.0661      4.7641      4.4848      4.2337      4.0111      3.8183      3.6496    
  3.5022      3.3730      3.2601      3.1628      3.0812      3.0147      2.9623      2.9222      2.8925      2.8716    
  2.8594      2.8577      2.8705      2.9040      2.9662      3.0654      3.2096      3.4049      3.6538      3.9541    
  4.2974      4.6705      5.0536      5.4217      5.7494      6.0110      6.1877      6.2668      6.2427      6.1221    
  6.8251      6.4480      6.0227      5.5871      5.1694      4.7839      4.4447      4.1584      3.9191      3.7230    
  3.5613      3.4267      3.3134      3.2174      3.1363      3.0689      3.0147      2.9730      2.9427      2.9233    
  2.9148      2.9189      2.9400      2.9855      3.0654      3.1917      3.3764      3.6298      3.9567      4.3554    
  4.8151      5.3138      5.8234      6.3119      6.7424      7.0795      7.2933      7.3685      7.3069      7.1198    
  8.1354      7.5850      6.9954      6.3885      5.7985      5.2646      4.8012      4.4109      4.0968      3.8475    
  3.6531      3.5014      3.3811      3.2838      3.2033      3.1363      3.0812      3.0380      3.0070      2.9890    
  2.9855      2.9990      3.0347      3.1008      3.2097      3.3765      3.6180      3.9489      4.3787      4.9055    
  5.5173      6.2005      6.9294      7.6554      8.3096      8.8144      9.1075      9.1589      8.9793      8.6173    
  10.452      9.4139      8.4270      7.5384      6.7331      5.9958      5.3511      4.8178      4.3869      4.0532    
  3.8000      3.6115      3.4715      3.3660      3.2838      3.2174      3.1629      3.1193      3.0878      3.0715    
  3.0739      3.1000      3.1564      3.2534      3.4049      3.6298      3.9489      4.3826      4.9429      5.6413    
  6.5006      7.5263      8.6834      9.8894      11.017      11.918      12.452      12.534      12.163      11.422    
  14.915      12.959      11.053      9.4025      8.0851      7.0431      6.1692      5.4294      4.8369      4.3753    
  4.0291      3.7769      3.5977      3.4715      3.3812      3.3135      3.2601      3.2175      3.1871      3.1731    
  3.1826      3.2237      3.3068      3.4444      3.6539      3.9567      4.3787      4.9429      5.6819      6.6633    
  7.9413      9.5268      11.377      13.372      15.313      16.945      18.016      18.339      17.852      16.640    
  22.433      19.270      15.978      12.955      10.473      8.6239      7.3076      6.3061      5.4905      4.8529    
  4.3715      4.0216      3.7769      3.6115      3.5014      3.4267      3.3730      3.3325      3.3045      3.2944    
  3.3124      3.3710      3.4854      3.6726      3.9542      4.3554      4.9055      5.6412      6.6633      8.0840    
  9.9714      12.353      15.179      18.293      21.414      24.165      26.145      27.023      26.633      25.020    
  33.392      28.927      23.968      19.117      14.861      11.498      9.1003      7.5098      6.3963      5.5252    
  4.8594      4.3715      4.0290      3.8000      3.6532      3.5613      3.5023      3.4629      3.4383      3.4342    
  3.4621      3.5407      3.6895      3.9333      4.2974      4.8152      5.5173      6.5006      7.9412      9.9714    
  12.679      16.097      20.167      24.692      29.313      33.527      36.774      38.557      38.566      36.763    
  47.537      41.900      35.249      28.352      21.914      16.468      12.302      9.4312      7.6207      6.4277    
  5.5252      4.8529      4.3752      4.0532      3.8475      3.7231      3.6497      3.6070      3.5855      3.5884    
  3.6286      3.7283      3.9138      4.2167      4.6706      5.3138      6.2005      7.5263      9.5268      12.353    
  16.097      20.780      26.322      32.479      38.818      44.723      49.489      52.456      53.163      51.458    
  64.060      57.548      49.426      40.567      31.837      23.981      17.532      12.742      9.5507      7.6207    
  6.3963      5.4904      4.8368      4.3869      4.0969      3.9191      3.8184      3.7638      3.7426      3.7515    
  3.8055      3.9266      4.1492      4.5093      5.0537      5.8234      6.9294      8.6834      11.377      15.179    
  20.167      26.322      33.510      41.431      49.580      57.253      63.634      67.932      69.550      68.220    
  81.826      74.827      65.635      55.146      44.317      34.043      25.069      17.902      12.742      9.4312    
  7.5097      6.3060      5.4293      4.8177      4.4109      4.1585      4.0112      3.9342      3.9050      3.9179    
  3.9838      4.1259      4.3822      4.7951      5.4218      6.3119      7.6554      9.8894      13.372      18.293    
  24.692      32.479      41.431      51.165      61.105      70.487      78.424      84.045      86.663      85.911    
  99.633      92.540      82.759      71.143      58.647      46.231      34.794      25.069      17.532      12.302    
  9.1002      7.3074      6.1690      5.3510      4.8011      4.4447      4.2338      4.1169      4.0716      4.0803    
  4.1556      4.3138      4.5992      5.0543      5.7494      6.7424      8.3096      11.017      15.313      21.414    
  29.313      38.818      49.580      61.105      72.741      83.679      93.012      99.842      103.44      103.38    
  116.40      109.57      99.681      87.491      73.887      59.815      46.231      34.042      23.981      16.468    
  11.498      8.6238      7.0429      5.9956      5.2645      4.7839      4.4849      4.3147      4.2377      4.2354    
  4.3106      4.4802      4.7839      5.2694      6.0110      7.0795      8.8144      11.918      16.945      24.165    
  33.527      44.723      57.253      70.487      83.679      95.993      106.53      114.41      118.91      119.61    
  131.28      125.01      115.42      103.18      89.050      73.887      58.646      44.316      31.837      21.914    
  14.861      10.472      8.0849      6.7329      5.7984      5.1694      4.7642      4.5242      4.4028      4.3775    
  4.4434      4.6141      4.9249      5.4235      6.1877      7.2933      9.1075      12.452      18.016      26.145    
  36.773      49.489      63.634      78.424      93.012      106.53      118.10      126.90      132.27      133.76    
  143.57      138.12      129.20      117.33      103.18      87.491      71.142      55.145      40.566      28.351    
  19.117      12.955      9.4024      7.5382      6.3883      5.5870      5.0661      4.7392      4.5648      4.5023    
  4.5502      4.7083      5.0140      5.5057      6.2667      7.3684      9.1588      12.534      18.339      27.023    
  38.556      52.455      67.932      84.045      99.841      114.41      126.90      136.57      142.80      145.18    
  152.77      148.36      140.35      129.20      115.42      99.680      82.757      65.633      49.425      35.248    
  23.968      15.978      11.053      8.4268      6.9952      6.0225      5.3724      4.9546      4.7153      4.6095    
  4.6261      4.7623      5.0457      5.5143      6.2426      7.3068      8.9792      12.163      17.852      26.633    
  38.566      53.162      69.549      86.662      103.44      118.91      132.27      142.80      149.95      153.33    
  158.47      155.25      148.36      138.12      125.00      109.57      92.539      74.825      57.546      41.898    
  28.927      19.269      12.959      9.4137      7.5847      6.4478      5.6641      5.1572      4.8474      4.6950    
  4.6707      4.7763      5.0227      5.4526      6.1219      7.1196      8.6171      11.422      16.640      25.019    
  36.763      51.457      68.218      85.910      103.38      119.61      133.76      145.18      153.33      157.83    
  158.55      157.84      153.31      145.21      133.91      119.93      103.86      86.491      68.805      51.962    
  37.136      25.259      16.780      11.507      8.6813      7.1692      6.1503      5.4599      5.0163      4.7666    
  4.6661      4.6988      4.8556      5.1605      5.6518      6.4131      7.5296      9.3436      12.858      19.095    
  28.631      41.451      56.964      74.174      91.921      109.09      124.72      138.03      148.40      155.35    
  157.84      158.51      155.30      148.37      138.05      124.83      109.28      92.155      74.407      57.152    
  41.577      28.701      19.137      12.897      9.3901      7.5750      6.4385      5.6488      5.1366      4.8280    
  4.6849      4.6746      4.7929      5.0451      5.4728      6.1356      7.1295      8.6339      11.467      16.742    
  25.203      37.036      51.802      68.593      86.262      103.66      119.79      133.85      145.20      153.33    
  153.31      155.30      153.36      147.58      138.25      125.86      111.02      94.476      77.137      60.063    
  44.382      31.116      20.952      14.055      9.9986      7.8826      6.6438      5.7783      5.2103      4.8538    
  4.6721      4.6215      4.6980      4.8945      5.2501      5.8062      6.6616      7.9057      10.059      14.204    
  21.244      31.581      45.006      60.783      77.854      95.085      111.45      126.08      138.30      147.54    
  145.21      148.37      147.58      142.86      134.48      122.96      108.95      93.242      76.713      60.350    
  45.178      32.144      21.928      14.777      10.404      8.0625      6.7434      5.8332      5.2256      4.8382    
  4.6251      4.5431      4.5781      4.7230      5.0015      5.4543      6.1573      7.1934      8.7923      11.812    
  17.267      25.760      37.359      51.565      67.499      84.096      100.32      115.27      128.16      138.32    
  133.91      138.05      138.26      134.48      127.01      116.38      103.31      88.639      73.241      58.027    
  43.888      31.647      21.905      14.926      10.518      8.0846      6.7258      5.8030      5.1771      4.7765    
  4.5439      4.4410      4.4410      4.5404      4.7464      5.1013      5.6560      6.5031      7.7258      9.8034    
  13.709      20.220      29.664      41.843      56.114      71.566      87.205      102.08      115.32      126.16    
  119.93      124.83      125.87      122.96      116.38      106.69      94.676      81.224      67.206      53.461    
  40.749      29.734      20.899      14.467      10.302      7.9300      6.5911      5.6846      5.0664      4.6671    
  4.4313      4.3158      4.2941      4.3533      4.5010      4.7634      5.1910      5.8513      6.8235      8.2617    
  10.848      15.459      22.634      32.479      44.639      58.423      72.942      87.255      100.43      111.58    
  103.86      109.28      111.02      108.95      103.31      94.676      83.872      71.806      59.355      47.289    
  36.246      26.732      19.093      13.479      9.7764      7.6058      6.3470      5.4866      4.8982      4.5162    
  4.2892      4.1723      4.1388      4.1701      4.2708      4.4577      4.7746      5.2737      6.0313      7.1079    
  8.7686      11.762      16.786      24.196      33.941      45.595      58.455      71.648      84.236      95.270    
  86.493      92.157      94.478      93.243      88.639      81.224      71.806      61.295      50.546      40.268    
  30.993      23.091      16.778      12.125      9.0149      7.1440      6.0120      5.2246      4.6836      4.3332    
  4.1235      4.0155      3.9778      3.9944      4.0596      4.1908      4.4155      4.7852      5.3515      6.1854    
  7.3426      9.1751      12.384      17.499      24.738      33.952      44.678      56.200      67.642      78.051    
  68.807      74.408      77.139      76.714      73.242      67.206      59.355      50.546      41.585      33.122    
  25.599      19.280      14.280      10.602      8.1237      6.5912      5.6138      4.9172      4.4397      4.1283    
  3.9445      3.8491      3.8165      3.8250      3.8710      3.9600      4.1190      4.3819      4.7998      5.4207    
  6.3017      7.5033      9.4038      12.606      17.502      24.207      32.509      41.910      51.682      60.954    
  51.964      57.153      60.065      60.351      58.028      53.461      47.289      40.268      33.122      26.424    
  20.547      15.681      11.877      9.0935      7.2058      5.9996      5.1810      4.5885      4.1817      3.9163    
  3.7605      3.6818      3.6566      3.6654      3.7006      3.7652      3.8764      4.0629      4.3619      4.8168    
  5.4713      6.3669      7.5644      9.4080      12.390      16.795      22.652      29.705      37.436      45.127    
  37.138      41.578      44.384      45.179      43.889      40.749      36.246      30.994      25.599      20.547    
  16.148      12.546      9.7594      7.7296      6.3414      5.4123      4.7438      4.2595      3.9259      3.7088    
  3.5818      3.5199      3.5036      3.5158      3.5482      3.5996      3.6818      3.8144      4.0273      4.3534    
  4.8301      5.4922      6.3723      7.5142      9.1887      11.776      15.474      20.244      25.804      31.652    
  25.260      28.702      31.117      32.145      31.648      29.735      26.732      23.092      19.280      15.681    
  12.546      9.9875      8.0178      6.5797      5.5761      4.8604      4.3293      3.9486      3.6857      3.5156    
  3.4162      3.3702      3.3618      3.3787      3.4116      3.4586      3.5248      3.6243      3.7773      4.0102    
  4.3518      4.8322      5.4791      6.3171      7.3643      8.7924      10.872      13.733      17.297      21.284    
  16.780      19.138      20.953      21.929      21.905      20.899      19.093      16.778      14.280      11.877    
  9.7594      8.0179      6.6638      5.6595      4.9227      4.3680      3.9592      3.6690      3.4708      3.3431    
  3.2695      3.2372      3.2356      3.2558      3.2908      3.3374      3.3974      3.4786      3.5944      3.7639    
  4.0090      4.3537      4.8222      5.4344      6.2086      7.1387      8.2956      9.8373      11.846      14.238    
  11.508      12.897      14.055      14.778      14.927      14.467      13.479      12.125      10.602      9.0936    
  7.7297      6.5797      5.6595      4.9408      4.3796      3.9540      3.6456      3.4303      3.2862      3.1950    
  3.1439      3.1235      3.1272      3.1493      3.1857      3.2334      3.2922      3.3657      3.4616      3.5921    
  3.7731      4.0232      4.3610      4.8054      5.3667      6.0569      6.8585      7.7665      8.8348      10.101    
  8.6815      9.3903      9.9988      10.404      10.518      10.302      9.7765      9.0150      8.1238      7.2058    
  6.3414      5.5761      4.9227      4.3796      3.9487      3.6253      3.3939      3.2363      3.1341      3.0722    
  3.0397      3.0295      3.0372      3.0603      3.0967      3.1449      3.2043      3.2761      3.3638      3.4743    
  3.6174      3.8060      4.0548      4.3770      4.7865      5.2842      5.8723      6.5347      7.2338      7.9514    
  7.1694      7.5752      7.8828      8.0627      8.0847      7.9300      7.6058      7.1440      6.5911      5.9996    
  5.4123      4.8604      4.3680      3.9540      3.6253      3.3783      3.2034      3.0868      3.0144      2.9737    
  2.9554      2.9534      2.9647      2.9882      3.0235      3.0710      3.1308      3.2032      3.2895      3.3924    
  3.5172      3.6712      3.8637      4.1055      4.4036      4.7670      5.1908      5.6654      6.1775      6.6927    
  6.1505      6.4386      6.6439      6.7435      6.7259      6.5911      6.3471      6.0120      5.6138      5.1810    
  4.7437      4.3293      3.9592      3.6456      3.3939      3.2034      3.0680      2.9786      2.9250      2.8977    
  2.8888      2.8930      2.9073      2.9311      2.9652      3.0111      3.0700      3.1430      3.2304      3.3330    
  3.4520      3.5901      3.7523      3.9436      4.1716      4.4376      4.7447      5.0872      5.4480      5.8100    
  5.4600      5.6489      5.7784      5.8333      5.8031      5.6847      5.4866      5.2245      4.9172      4.5884    
  4.2595      3.9485      3.6690      3.4302      3.2363      3.0868      2.9786      2.9061      2.8629      2.8423    
  2.8381      2.8457      2.8622      2.8866      2.9199      2.9641      3.0215      3.0940      3.1825      3.2870    
  3.4069      3.5416      3.6913      3.8576      4.0417      4.2482      4.4750      4.7190      4.9757      5.2293    
  5.0162      5.1367      5.2103      5.2257      5.1772      5.0664      4.8982      4.6836      4.4397      4.1816    
  3.9259      3.6856      3.4707      3.2861      3.1341      3.0144      2.9250      2.8629      2.8244      2.8054    
  2.8017      2.8099      2.8271      2.8521      2.8854      2.9287      2.9848      3.0563      3.1452      3.2519    
  3.3751      3.5123      3.6611      3.8185      3.9842      4.1553      4.3327      4.5146      4.6936      4.8638    
  4.7665      4.8280      4.8538      4.8382      4.7766      4.6672      4.5162      4.3332      4.1283      3.9163    
  3.7088      3.5156      3.3431      3.1950      3.0722      2.9737      2.8977      2.8423      2.8054      2.7849    
  2.7788      2.7847      2.8008      2.8258      2.8596      2.9035      2.9598      3.0315      3.1212      3.2300    
  3.3574      3.5007      3.6552      3.8161      3.9772      4.1361      4.2878      4.4295      4.5606      4.6753    
  4.6659      4.6848      4.6720      4.6250      4.5438      4.4313      4.2892      4.1235      3.9445      3.7605    
  3.5817      3.4161      3.2694      3.1439      3.0397      2.9554      2.8888      2.8381      2.8017      2.7788    
  2.7685      2.7703      2.7834      2.8073      2.8419      2.8878      2.9469      3.0218      3.1150      3.2286    
  3.3626      3.5144      3.6792      3.8502      4.0200      4.1795      4.3235      4.4473      4.5459      4.6188    
  4.6986      4.6744      4.6213      4.5430      4.4410      4.3157      4.1723      4.0155      3.8490      3.6817    