unknown system                          
   2.98780000000000     
    -0.500000    0.500000    0.500000
     0.500000   -0.500000    0.500000
     0.500000    0.500000   -0.500000
   V 
     1
Direct
  0.000000  0.000000  0.000000
 
   40   40   40
 0.16040718829E+03 0.15847485968E+03 0.15277436647E+03 0.14357305053E+03 0.13127484377E+03
 0.11640312318E+03 0.99631362171E+02 0.81824296112E+02 0.64058107394E+02 0.47535455907E+02
 0.33391384178E+02 0.22431954111E+02 0.14914668721E+02 0.10452278032E+02 0.81352031702E+01
 0.68249267559E+01 0.59215583320E+01 0.53289748831E+01 0.49530888504E+01 0.47524860292E+01
 0.46852895026E+01 0.47524859825E+01 0.49530887413E+01 0.53289746888E+01 0.59215580368E+01
 0.68249263651E+01 0.81352027169E+01 0.10452277574E+02 0.14914668333E+02 0.22431953858E+02
 0.33391384103E+02 0.47535456016E+02 0.64058107655E+02 0.81824296466E+02 0.99631362549E+02
 0.11640312352E+03 0.13127484404E+03 0.14357305072E+03 0.15277436658E+03 0.15847485972E+03
 0.15847487597E+03 0.15782998914E+03 0.15332777688E+03 0.14517763393E+03 0.13376318928E+03
 0.11960848603E+03 0.10337980201E+03 0.85909843153E+02 0.68218400868E+02 0.51456783338E+02
 0.36762526377E+02 0.25018924399E+02 0.16639557647E+02 0.11421680685E+02 0.86171094211E+01
 0.71196097628E+01 0.61219501231E+01 0.54525537896E+01 0.50226854078E+01 0.47763426563E+01
 0.46706731641E+01 0.46949597271E+01 0.48473577324E+01 0.51572080652E+01 0.56641024604E+01
 0.64478480157E+01 0.75847447110E+01 0.94137428391E+01 0.12959119518E+02 0.19269143484E+02
 0.28926604422E+02 0.41898308831E+02 0.57546257396E+02 0.74824899840E+02 0.92538584401E+02
 0.10957248582E+03 0.12500465354E+03 0.13812020228E+03 0.14835529409E+03 0.15525441242E+03
 0.15277445362E+03 0.15332781574E+03 0.14994686135E+03 0.14279750917E+03 0.13226701621E+03
 0.11891404285E+03 0.10343834780E+03 0.86662188308E+02 0.69549310742E+02 0.53162422417E+02
 0.38565582473E+02 0.26632881140E+02 0.17851782151E+02 0.12163226785E+02 0.89791820908E+01
 0.73067777314E+01 0.62425853848E+01 0.55143325015E+01 0.50457158324E+01 0.47623003441E+01
 0.46261387107E+01 0.46095138887E+01 0.47153491844E+01 0.49545731913E+01 0.53723648151E+01
 0.60225459013E+01 0.69951995524E+01 0.84268271164E+01 0.11052847618E+02 0.15977659676E+02
 0.23967539505E+02 0.35248282596E+02 0.49424810393E+02 0.65633089297E+02 0.82757186278E+02
 0.99679658194E+02 0.11542377487E+03 0.12919564657E+03 0.14035194884E+03 0.14835539300E+03
 0.14357330976E+03 0.14517776723E+03 0.14279754657E+03 0.13656812625E+03 0.12690056197E+03
 0.11440642035E+03 0.99841499301E+02 0.84044811878E+02 0.67931714722E+02 0.52455019368E+02
 0.38556287115E+02 0.27023001072E+02 0.18339153490E+02 0.12533885793E+02 0.91587938194E+01
 0.73683794024E+01 0.62667484421E+01 0.55057093853E+01 0.50140018286E+01 0.47083400722E+01
 0.45502363197E+01 0.45023414292E+01 0.45647518073E+01 0.47391977242E+01 0.50660660919E+01
 0.55869745785E+01 0.63883155608E+01 0.75382157874E+01 0.94023536340E+01 0.12954973431E+02
 0.19116603480E+02 0.28351121175E+02 0.40566493932E+02 0.55145011718E+02 0.71142380495E+02
 0.87490535452E+02 0.10318136159E+03 0.11733229162E+03 0.12919590671E+03 0.13812053471E+03
 0.13127540257E+03 0.13376351491E+03 0.13226713609E+03 0.12690057427E+03 0.11809505769E+03
 0.10652582569E+03 0.93011825340E+02 0.78423699565E+02 0.63634158196E+02 0.49488754804E+02
 0.36773191791E+02 0.26144949809E+02 0.18016032589E+02 0.12451572815E+02 0.91074554891E+01
 0.72932697057E+01 0.61876659389E+01 0.54235163525E+01 0.49249361526E+01 0.46141134280E+01
 0.44434424051E+01 0.43774606560E+01 0.44028184967E+01 0.45241652918E+01 0.47641837771E+01
 0.51693753653E+01 0.57983926898E+01 0.67329238487E+01 0.80849252966E+01 0.10472452021E+02
 0.14861038025E+02 0.21913739998E+02 0.31836700954E+02 0.44316403046E+02 0.58646403785E+02
 0.73887013511E+02 0.89049615772E+02 0.10318176416E+03 0.11542443543E+03 0.12500535735E+03
 0.11640407419E+03 0.11960910752E+03 0.11891433064E+03 0.11440648036E+03 0.10652580269E+03
 0.95993112835E+02 0.83679070706E+02 0.70486659676E+02 0.57253230394E+02 0.44722734105E+02
 0.33526863610E+02 0.24165288871E+02 0.16945318409E+02 0.11917818448E+02 0.88143954065E+01
 0.70795261424E+01 0.60109937560E+01 0.52694330517E+01 0.47839316242E+01 0.44802178643E+01
 0.43105945938E+01 0.42353764679E+01 0.42377395391E+01 0.43146821858E+01 0.44848624887E+01
 0.47838992646E+01 0.52644807088E+01 0.59956135485E+01 0.70428836572E+01 0.86237534118E+01
 0.11498189688E+02 0.16468033637E+02 0.23980848567E+02 0.34042289234E+02 0.46230925157E+02
 0.59814846922E+02 0.73887420745E+02 0.87491357904E+02 0.99680756991E+02 0.10957362673E+03
 0.99632696421E+02 0.10338076511E+03 0.10343888166E+03 0.99841682261E+02 0.93011814838E+02
 0.83679021481E+02 0.72740864103E+02 0.61105082370E+02 0.49579817254E+02 0.38817716835E+02
 0.29313415412E+02 0.21413555469E+02 0.15312920075E+02 0.11017419520E+02 0.83096167180E+01
 0.67424323943E+01 0.57494069238E+01 0.50542751495E+01 0.45992134691E+01 0.43138034187E+01
 0.41555565146E+01 0.40803329173E+01 0.40715975619E+01 0.41169127310E+01 0.42338447035E+01
 0.44447234233E+01 0.48011022767E+01 0.53510167509E+01 0.61690382106E+01 0.73074311987E+01
 0.91001892593E+01 0.12302101179E+02 0.17531936263E+02 0.25069339160E+02 0.34793594015E+02
 0.46231195893E+02 0.58647080961E+02 0.71143491845E+02 0.82758614358E+02 0.92540096604E+02
 0.81825874300E+02 0.85911085894E+02 0.86662979727E+02 0.84045177098E+02 0.78423771063E+02
 0.70486604544E+02 0.61105029100E+02 0.51164568700E+02 0.41430615768E+02 0.32479145281E+02
 0.24692431813E+02 0.18292866583E+02 0.13371673053E+02 0.98893980031E+01 0.76554075150E+01
 0.63119341685E+01 0.54217586267E+01 0.47950855473E+01 0.43822309919E+01 0.41259194300E+01
 0.39837694951E+01 0.39179406935E+01 0.39050311662E+01 0.39342376864E+01 0.40111947824E+01
 0.41584995747E+01 0.44109110210E+01 0.48176988352E+01 0.54292811095E+01 0.63060188330E+01
 0.75097320826E+01 0.94311812966E+01 0.12742423605E+02 0.17901932340E+02 0.25069448214E+02
 0.34042643764E+02 0.44317137171E+02 0.55146180779E+02 0.65634617010E+02 0.74826584157E+02
 0.64059694705E+02 0.68219754009E+02 0.69550274156E+02 0.67932255354E+02 0.63634358003E+02
 0.57253233310E+02 0.49579760695E+02 0.41430580586E+02 0.33509964572E+02 0.26321767332E+02
 0.20166650110E+02 0.15178958253E+02 0.11376627777E+02 0.86833538484E+01 0.69293858188E+01
 0.58234224743E+01 0.50536709231E+01 0.45093454005E+01 0.41491623872E+01 0.39265569563E+01
 0.38054847692E+01 0.37514589354E+01 0.37425606225E+01 0.37638434370E+01 0.38183892652E+01
 0.39191271314E+01 0.40968557568E+01 0.43869064473E+01 0.48368486371E+01 0.54903667262E+01
 0.63962791718E+01 0.76206536204E+01 0.95506789800E+01 0.12742453796E+02 0.17532045297E+02
 0.23981142161E+02 0.31837305495E+02 0.40567490067E+02 0.49426175088E+02 0.57547846682E+02
 0.47536808987E+02 0.51458028210E+02 0.53163396783E+02 0.52455649083E+02 0.49489067153E+02
 0.44722827981E+02 0.38817708999E+02 0.32479121505E+02 0.26321760380E+02 0.20779777879E+02
 0.16097214868E+02 0.12352700152E+02 0.95267980478E+01 0.75262967851E+01 0.62005145048E+01
 0.53138065235E+01 0.46705781369E+01 0.42166545936E+01 0.39138371313E+01 0.37283374229E+01
 0.36286215201E+01 0.35883521979E+01 0.35855115167E+01 0.36070194828E+01 0.36496742257E+01
 0.37230784950E+01 0.38475424810E+01 0.40531853829E+01 0.43752281998E+01 0.48528730454E+01
 0.55251535008E+01 0.64276754967E+01 0.76206835087E+01 0.94312308087E+01 0.12302187034E+02
 0.16468222109E+02 0.21914133516E+02 0.28351812237E+02 0.35249297087E+02 0.41899573289E+02
 0.33392349864E+02 0.36763485013E+02 0.38566399370E+02 0.38556876621E+02 0.36773541617E+02
 0.33527025601E+02 0.29313470539E+02 0.24692450234E+02 0.20166666990E+02 0.16097230749E+02
 0.12679338881E+02 0.99713567665E+01 0.79412437063E+01 0.65006120769E+01 0.55172921596E+01
 0.48151786798E+01 0.42974111069E+01 0.39332982863E+01 0.36894554876E+01 0.35407029633E+01
 0.34621489845E+01 0.34341608828E+01 0.34382798134E+01 0.34628713130E+01 0.35022872867E+01
 0.35613429013E+01 0.36531932774E+01 0.38000184960E+01 0.40290498595E+01 0.43714787479E+01
 0.48593794099E+01 0.55251836746E+01 0.63963450336E+01 0.75098209799E+01 0.91002883510E+01
 0.11498320189E+02 0.14861262540E+02 0.19117000940E+02 0.23968162708E+02 0.28927441972E+02
 0.22432524625E+02 0.25019531911E+02 0.26633439340E+02 0.27023441004E+02 0.26145244815E+02
 0.24165457476E+02 0.21413643500E+02 0.18292920374E+02 0.15179004087E+02 0.12352740272E+02
 0.99713804434E+01 0.80839579087E+01 0.66633190561E+01 0.56412336883E+01 0.49055149320E+01
 0.43553917065E+01 0.39541516004E+01 0.36725932185E+01 0.34853782944E+01 0.33709725857E+01
 0.33123657205E+01 0.32944024949E+01 0.33045020593E+01 0.33324892212E+01 0.33730489653E+01
 0.34267440313E+01 0.35014085074E+01 0.36114770543E+01 0.37769395174E+01 0.40216343671E+01
 0.43714906720E+01 0.48529151856E+01 0.54904503828E+01 0.63061417177E+01 0.73075748826E+01
 0.86239009788E+01 0.10472616208E+02 0.12955198010E+02 0.15977993512E+02 0.19269608387E+02
 0.14914965027E+02 0.16639878685E+02 0.17852089317E+02 0.18339408576E+02 0.18016215452E+02
 0.16945434151E+02 0.15312992003E+02 0.13371727268E+02 0.11376679507E+02 0.95268471283E+01
 0.79412807328E+01 0.66633365125E+01 0.56819334276E+01 0.49429113000E+01 0.43786705600E+01
 0.39567245922E+01 0.36538767554E+01 0.34443900268E+01 0.33067771874E+01 0.32237271539E+01
 0.31825792490E+01 0.31730860201E+01 0.31870651994E+01 0.32175434291E+01 0.32600988659E+01
 0.33134627364E+01 0.33811625746E+01 0.34714642770E+01 0.35977460128E+01 0.37769339226E+01
 0.40290527323E+01 0.43752569588E+01 0.48369184361E+01 0.54293990493E+01 0.61691996818E+01
 0.70430702308E+01 0.80851156976E+01 0.94025447500E+01 0.11053057762E+02 0.12959370566E+02
 0.10452466315E+02 0.11421855701E+02 0.12163378814E+02 0.12534003148E+02 0.12451650182E+02
 0.11917861534E+02 0.11017443057E+02 0.98894180618E+01 0.86833795525E+01 0.75263272005E+01
 0.65006396225E+01 0.56412511462E+01 0.49429174912E+01 0.43825818081E+01 0.39489112133E+01
 0.36298345890E+01 0.34049116888E+01 0.32533748912E+01 0.31564383615E+01 0.31000261355E+01
 0.30739445952E+01 0.30715470636E+01 0.30878498563E+01 0.31192591742E+01 0.31628647981E+01
 0.32174332283E+01 0.32837680936E+01 0.33659797860E+01 0.34714514072E+01 0.36114552965E+01
 0.37999978634E+01 0.40531806685E+01 0.43869340211E+01 0.48177721229E+01 0.53511416503E+01
 0.59957865623E+01 0.67331302296E+01 0.75384330511E+01 0.84270379344E+01 0.94139420855E+01
 0.81353938168E+01 0.86172651915E+01 0.89792958636E+01 0.91588631249E+01 0.91074834570E+01
 0.88143917616E+01 0.83095957599E+01 0.76553835495E+01 0.69293685076E+01 0.62005064663E+01
 0.55172904642E+01 0.49055151015E+01 0.43786697879E+01 0.39489095507E+01 0.36179934930E+01
 0.33764547710E+01 0.32096506960E+01 0.31008155193E+01 0.30346612704E+01 0.29989858920E+01
 0.29854554011E+01 0.29889988561E+01 0.30069713748E+01 0.30379772577E+01 0.30812395783E+01
 0.31362867943E+01 0.32033152087E+01 0.32837563060E+01 0.33811367697E+01 0.35013694511E+01
 0.36531463455E+01 0.38474981624E+01 0.40968284227E+01 0.44109162453E+01 0.48011533498E+01
 0.52645843322E+01 0.57985473143E+01 0.63885106560E+01 0.69954153527E+01 0.75849578751E+01
 0.68251133106E+01 0.71197781703E+01 0.73069095814E+01 0.73684641977E+01 0.72933059248E+01
 0.70795202823E+01 0.67423968639E+01 0.63118837003E+01 0.58233700324E+01 0.53137607906E+01
 0.48151434794E+01 0.43553669469E+01 0.39567081610E+01 0.36298242829E+01 0.33764495150E+01
 0.31916516056E+01 0.30653684557E+01 0.29854962467E+01 0.29400351590E+01 0.29188948009E+01
 0.29147566463E+01 0.29233021942E+01 0.29427273600E+01 0.29729590024E+01 0.30147395046E+01
 0.30689445832E+01 0.31362781874E+01 0.32174134031E+01 0.33134288097E+01 0.34266941823E+01
 0.35612780822E+01 0.37230038044E+01 0.39190523773E+01 0.41584383922E+01 0.44446909045E+01
 0.47839092217E+01 0.51694361984E+01 0.55870865101E+01 0.60227009588E+01 0.64480300719E+01
 0.59216864968E+01 0.61220879119E+01 0.62427120472E+01 0.62668459675E+01 0.61877229012E+01
 0.60110074524E+01 0.57493826864E+01 0.54217073769E+01 0.50536060200E+01 0.46705118911E+01
 0.42973523693E+01 0.39541049441E+01 0.36538429965E+01 0.34048893095E+01 0.32096374147E+01
 0.30653623750E+01 0.29661505148E+01 0.29040250628E+01 0.28704950148E+01 0.28576996731E+01
 0.28594251065E+01 0.28716018751E+01 0.28924700230E+01 0.29222070604E+01 0.29623052322E+01
 0.30147326051E+01 0.30812248802E+01 0.31628406576E+01 0.32600627116E+01 0.33729977989E+01
 0.35022188377E+01 0.36495885819E+01 0.38182902927E+01 0.40110909148E+01 0.42337485581E+01
 0.44847885971E+01 0.47641461262E+01 0.50660747237E+01 0.53724220856E+01 0.56642021793E+01
 0.53290175864E+01 0.54526259655E+01 0.55144180646E+01 0.55057905767E+01 0.54235775124E+01
 0.52694636211E+01 0.50542717266E+01 0.47950518353E+01 0.45092901072E+01 0.42165887438E+01
 0.39332323674E+01 0.36725350125E+01 0.34443437402E+01 0.32533414366E+01 0.31007936003E+01
 0.29854836330E+01 0.29040195883E+01 0.28517937307E+01 0.28234613420E+01 0.28136477128E+01
 0.28175038638E+01 0.28314056504E+01 0.28533389279E+01 0.28831393439E+01 0.29222008827E+01
 0.29729461413E+01 0.30379576572E+01 0.31192325679E+01 0.32175086476E+01 0.33324438342E+01
 0.34628119705E+01 0.36069429605E+01 0.37637483002E+01 0.39341258922E+01 0.41167906044E+01
 0.43145606507E+01 0.45240579303E+01 0.47391180904E+01 0.49545322109E+01 0.51572106221E+01
 0.49530447858E+01 0.50226774880E+01 0.50457375199E+01 0.50140410364E+01 0.49249782776E+01
 0.47839632567E+01 0.45992250402E+01 0.43822184281E+01 0.41491275189E+01 0.39137862078E+01
 0.36893969482E+01 0.34853204646E+01 0.33067264276E+01 0.31563982077E+01 0.30346325235E+01
 0.29400166812E+01 0.28704847462E+01 0.28234571307E+01 0.27960842718E+01 0.27852568027E+01
 0.27878758883E+01 0.28011561108E+01 0.28231914272E+01 0.28533340343E+01 0.28924587956E+01
 0.29427093314E+01 0.30069470957E+01 0.30878204538E+01 0.31870315313E+01 0.33044637970E+01
 0.34382348289E+01 0.35854560288E+01 0.37424901308E+01 0.39049421690E+01 0.40714894826E+01
 0.42376158628E+01 0.44026875156E+01 0.45646255617E+01 0.47152406057E+01 0.48472780312E+01
 0.47523797671E+01 0.47762631331E+01 0.47622510144E+01 0.47083185548E+01 0.46141121369E+01
 0.44802258422E+01 0.43138095332E+01 0.41259151178E+01 0.39265376969E+01 0.37283033746E+01
 0.35406581275E+01 0.33709230607E+01 0.32236792417E+01 0.30999847533E+01 0.29989537570E+01
 0.29188724047E+01 0.28576858716E+01 0.28136405440E+01 0.27852541697E+01 0.27712102187E+01
 0.27701042930E+01 0.27805103153E+01 0.28011532276E+01 0.28313978267E+01 0.28715874128E+01
 0.29232803257E+01 0.29889701693E+01 0.30715134904E+01 0.31730502472E+01 0.32943668742E+01
 0.34341262211E+01 0.35883168326E+01 0.37514186475E+01 0.39178895163E+01 0.40802648296E+01
 0.42352877691E+01 0.43773514733E+01 0.45022166667E+01 0.46093832244E+01 0.46948353931E+01
 0.46851600882E+01 0.46705498743E+01 0.46260322662E+01 0.45501532736E+01 0.44433840121E+01
 0.43105573101E+01 0.41555331018E+01 0.39837512898E+01 0.38054643993E+01 0.36285944605E+01
 0.34621142723E+01 0.33123255742E+01 0.31825377707E+01 0.30739062298E+01 0.29854235890E+01
 0.29147330986E+01 0.28594097567E+01 0.28174953452E+01 0.27878722119E+01 0.27701034003E+01
 0.27641751392E+01 0.27701033979E+01 0.27878722095E+01 0.28174953467E+01 0.28594097668E+01
 0.29147331217E+01 0.29854236281E+01 0.30739062863E+01 0.31825378443E+01 0.33123256630E+01
 0.34621143738E+01 0.36285945715E+01 0.38054645164E+01 0.39837514093E+01 0.41555332196E+01
 0.43105574214E+01 0.44433841113E+01 0.45501533548E+01 0.46260323240E+01 0.46705499043E+01
 0.47523797224E+01 0.46948353225E+01 0.46093831313E+01 0.45022165559E+01 0.43773513503E+01
 0.42352876395E+01 0.40802646982E+01 0.39178893874E+01 0.37514185246E+01 0.35883167186E+01
 0.34341261189E+01 0.32943667863E+01 0.31730501759E+01 0.30715134372E+01 0.29889701342E+01
 0.29232803071E+01 0.28715874074E+01 0.28313978299E+01 0.28011532346E+01 0.27805103222E+01
 0.27701042976E+01 0.27712102211E+01 0.27852541723E+01 0.28136405509E+01 0.28576858875E+01
 0.29188724337E+01 0.29989538016E+01 0.30999848141E+01 0.32236793174E+01 0.33709231482E+01
 0.35406582229E+01 0.37283034736E+01 0.39265377952E+01 0.41259152114E+01 0.43138096182E+01
 0.44802259144E+01 0.46141121921E+01 0.47083185889E+01 0.47622510239E+01 0.47762631158E+01
 0.49530446931E+01 0.48472779232E+01 0.47152404865E+01 0.45646254359E+01 0.44026873872E+01
 0.42376157354E+01 0.40714893589E+01 0.39049420511E+01 0.37424900201E+01 0.35854559269E+01
 0.34382347376E+01 0.33044637185E+01 0.31870314676E+01 0.30878204064E+01 0.30069470653E+01
 0.29427093166E+01 0.28924587935E+01 0.28533340406E+01 0.28231914375E+01 0.28011561210E+01
 0.27878758964E+01 0.27852568087E+01 0.27960842783E+01 0.28234571420E+01 0.28704847673E+01
 0.29400167164E+01 0.30346325750E+01 0.31563982755E+01 0.33067265088E+01 0.34853205542E+01
 0.36893970398E+01 0.39137862947E+01 0.41491275950E+01 0.43822184883E+01 0.45992250807E+01
 0.47839632750E+01 0.49249782724E+01 0.50140410074E+01 0.50457374676E+01 0.50226774142E+01
 0.53290174420E+01 0.51572104774E+01 0.49545320714E+01 0.47391179597E+01 0.45240578105E+01
 0.43145605421E+01 0.41167905063E+01 0.39341258034E+01 0.37637482193E+01 0.36069428868E+01
 0.34628119041E+01 0.33324437762E+01 0.32175085999E+01 0.31192325320E+01 0.30379576343E+01
 0.29729461310E+01 0.29222008831E+01 0.28831393517E+01 0.28533389392E+01 0.28314056616E+01
 0.28175038728E+01 0.28136477197E+01 0.28234613493E+01 0.28517937430E+01 0.29040196111E+01
 0.29854836714E+01 0.31007936573E+01 0.32533415121E+01 0.34443438304E+01 0.36725351103E+01
 0.39332324632E+01 0.42165888271E+01 0.45092901683E+01 0.47950518665E+01 0.50542717232E+01
 0.52694635821E+01 0.54235774399E+01 0.55057904755E+01 0.55144179414E+01 0.54526258280E+01
 0.59216863011E+01 0.56642020003E+01 0.53724219305E+01 0.50660745953E+01 0.47641460240E+01
 0.44847885179E+01 0.42337484971E+01 0.40110908669E+01 0.38182902534E+01 0.36495885479E+01
 0.35022188072E+01 0.33729977716E+01 0.32600626883E+01 0.31628406397E+01 0.30812248690E+01
 0.30147326012E+01 0.29623052349E+01 0.29222070680E+01 0.28924700327E+01 0.28716018841E+01
 0.28594251126E+01 0.28576996762E+01 0.28704950171E+01 0.29040250691E+01 0.29661505313E+01
 0.30653624083E+01 0.32096374697E+01 0.34048893877E+01 0.36538430946E+01 0.39541050539E+01
 0.42973524780E+01 0.46705119837E+01 0.50536060814E+01 0.54217073947E+01 0.57493826529E+01
 0.60110073665E+01 0.61877227679E+01 0.62668457973E+01 0.62427118539E+01 0.61220877104E+01
 0.68251130723E+01 0.64480298662E+01 0.60227007954E+01 0.55870863912E+01 0.51694361207E+01
 0.47839091778E+01 0.44446908853E+01 0.41584383891E+01 0.39190523830E+01 0.37230038135E+01
 0.35612780914E+01 0.34266941899E+01 0.33134288155E+01 0.32174134076E+01 0.31362781915E+01
 0.30689445878E+01 0.30147395101E+01 0.29729590084E+01 0.29427273653E+01 0.29233021968E+01
 0.29147566444E+01 0.29188947939E+01 0.29400351483E+01 0.29854962365E+01 0.30653684532E+01
 0.31916516192E+01 0.33764495529E+01 0.36298243502E+01 0.39567082573E+01 0.43553670649E+01
 0.48151436047E+01 0.53137609036E+01 0.58233701118E+01 0.63118837268E+01 0.67423968246E+01
 0.70795201732E+01 0.72933057518E+01 0.73684639757E+01 0.73069093315E+01 0.71197779155E+01
 0.81353935547E+01 0.75849576585E+01 0.69954151936E+01 0.63885105563E+01 0.57985472676E+01
 0.52645843268E+01 0.48011533725E+01 0.44109162840E+01 0.40968284683E+01 0.38474982087E+01
 0.36531463889E+01 0.35013694898E+01 0.33811368026E+01 0.32837563326E+01 0.32033152288E+01
 0.31362868084E+01 0.30812395868E+01 0.30379772612E+01 0.30069713732E+01 0.29889988484E+01
 0.29854553857E+01 0.29989858674E+01 0.30346612366E+01 0.31008154796E+01 0.32096506577E+01
 0.33764547447E+01 0.36179934913E+01 0.39489095843E+01 0.43786698621E+01 0.49055152128E+01
 0.55172905993E+01 0.62005066029E+01 0.69293686181E+01 0.76553836067E+01 0.83095957428E+01
 0.88143916605E+01 0.91074832759E+01 0.91588628808E+01 0.89792955833E+01 0.86172649059E+01
 0.10452466056E+02 0.94139418804E+01 0.84270377977E+01 0.75384329839E+01 0.67331302222E+01
 0.59957865984E+01 0.53511417124E+01 0.48177721962E+01 0.43869340955E+01 0.40531807387E+01
 0.37999979275E+01 0.36114553541E+01 0.34714514579E+01 0.33659798286E+01 0.32837681267E+01
 0.32174332507E+01 0.31628648095E+01 0.31192591750E+01 0.30878498468E+01 0.30715470430E+01
 0.30739445615E+01 0.31000260860E+01 0.31564382943E+01 0.32533748078E+01 0.34049115960E+01
 0.36298344996E+01 0.39489111446E+01 0.43825817783E+01 0.49429175137E+01 0.56412512253E+01
 0.65006397490E+01 0.75263273520E+01 0.86833796969E+01 0.98894181637E+01 0.11017443086E+02
 0.11917861472E+02 0.12451650028E+02 0.12534002918E+02 0.12163378538E+02 0.11421855416E+02
 0.14914964801E+02 0.12959370398E+02 0.11053057668E+02 0.94025447301E+01 0.80851157385E+01
 0.70430703115E+01 0.61691997803E+01 0.54293991484E+01 0.48369185258E+01 0.43752570361E+01
 0.40290527991E+01 0.37769339819E+01 0.35977460665E+01 0.34714643246E+01 0.33811626138E+01
 0.33134627640E+01 0.32600988797E+01 0.32175434279E+01 0.31870651824E+01 0.31730859860E+01
 0.31825791946E+01 0.32237270743E+01 0.33067770783E+01 0.34443898870E+01 0.36538765907E+01
 0.39567244169E+01 0.43786703966E+01 0.49429111748E+01 0.56819333649E+01 0.66633365266E+01
 0.79412808224E+01 0.95268472744E+01 0.11376679676E+02 0.13371727416E+02 0.15312992091E+02
 0.16945434151E+02 0.18016215356E+02 0.18339408394E+02 0.17852089080E+02 0.16639878433E+02
 0.22432524459E+02 0.19269608278E+02 0.15977993478E+02 0.12955198049E+02 0.10472616304E+02
 0.86239011053E+01 0.73075750136E+01 0.63061418340E+01 0.54904504750E+01 0.48529152541E+01
 0.43714907236E+01 0.40216344102E+01 0.37769395579E+01 0.36114770941E+01 0.35014085439E+01
 0.34267440598E+01 0.33730489807E+01 0.33324892198E+01 0.33045020380E+01 0.32944024499E+01
 0.33123656464E+01 0.33709724747E+01 0.34853781387E+01 0.36725930138E+01 0.39541513508E+01
 0.43553914275E+01 0.49055146509E+01 0.56412334403E+01 0.66633188770E+01 0.80839578251E+01
 0.99713804647E+01 0.12352740385E+02 0.15179004259E+02 0.18292920558E+02 0.21413643647E+02
 0.24165457548E+02 0.26145244793E+02 0.27023440894E+02 0.26633439170E+02 0.25019531721E+02
 0.33392349772E+02 0.28927441934E+02 0.23968162743E+02 0.19117001042E+02 0.14861262690E+02
 0.11498320358E+02 0.91002885082E+01 0.75098211047E+01 0.63963451176E+01 0.55251837220E+01
 0.48593794330E+01 0.43714787610E+01 0.40290498738E+01 0.38000185167E+01 0.36531933030E+01
 0.35613429262E+01 0.35022873033E+01 0.34628713143E+01 0.34382797929E+01 0.34341608330E+01
 0.34621488961E+01 0.35407028245E+01 0.36894552863E+01 0.39332980148E+01 0.42974107670E+01
 0.48151782879E+01 0.55172917477E+01 0.65006116890E+01 0.79412433898E+01 0.99713565610E+01
 0.12679338807E+02 0.16097230802E+02 0.20166667141E+02 0.24692450433E+02 0.29313470731E+02
 0.33527025739E+02 0.36773541673E+02 0.38556876593E+02 0.38566399280E+02 0.36763484900E+02
 0.47536808969E+02 0.41899573321E+02 0.35249297185E+02 0.28351812394E+02 0.21914133711E+02
 0.16468222308E+02 0.12302187206E+02 0.94312309316E+01 0.76206835759E+01 0.64276755158E+01
 0.55251534889E+01 0.48528730224E+01 0.43752281820E+01 0.40531853789E+01 0.38475424914E+01
 0.37230785140E+01 0.36496742441E+01 0.36070194906E+01 0.35855115033E+01 0.35883521516E+01
 0.36286214264E+01 0.37283372649E+01 0.39138368919E+01 0.42166542608E+01 0.46705777107E+01
 0.53138060209E+01 0.62005139623E+01 0.75262962549E+01 0.95267975884E+01 0.12352699815E+02
 0.16097214686E+02 0.20779777856E+02 0.26321760490E+02 0.32479121699E+02 0.38817709217E+02
 0.44722828169E+02 0.49489067276E+02 0.52455649130E+02 0.53163396772E+02 0.51458028175E+02
 0.64059694746E+02 0.57547846767E+02 0.49426175230E+02 0.40567490258E+02 0.31837305712E+02
 0.23981142369E+02 0.17532045464E+02 0.12742453903E+02 0.95506790223E+01 0.76206536083E+01
 0.63962791261E+01 0.54903666703E+01 0.48368485904E+01 0.43869064212E+01 0.40968557534E+01
 0.39191271455E+01 0.38183892873E+01 0.37638434550E+01 0.37425606227E+01 0.37514589015E+01
 0.38054846813E+01 0.39265567913E+01 0.41491621225E+01 0.45093450197E+01 0.50536704239E+01
 0.58234218748E+01 0.69293851598E+01 0.86833531897E+01 0.11376627187E+02 0.15178957794E+02
 0.20166649824E+02 0.26321767230E+02 0.33509964632E+02 0.41430580760E+02 0.49579760921E+02
 0.57253233529E+02 0.63634358173E+02 0.67932255460E+02 0.69550274208E+02 0.68219754037E+02
 0.81825874378E+02 0.74826584270E+02 0.65634617169E+02 0.55146180974E+02 0.44317137378E+02
 0.34042643951E+02 0.25069448353E+02 0.17901932414E+02 0.12742423613E+02 0.94311812531E+01
 0.75097320099E+01 0.63060187553E+01 0.54292810464E+01 0.48176987980E+01 0.44109110122E+01
 0.41584995896E+01 0.40111948117E+01 0.39342377179E+01 0.39050311847E+01 0.39179406794E+01
 0.39837694234E+01 0.41259192716E+01 0.43822307183E+01 0.47950851374E+01 0.54217580760E+01
 0.63119334961E+01 0.76554067660E+01 0.98893972441E+01 0.13371672360E+02 0.18292866029E+02
 0.24692431445E+02 0.32479145115E+02 0.41430615785E+02 0.51164568852E+02 0.61105029323E+02
 0.70486604777E+02 0.78423771260E+02 0.84045177239E+02 0.86662979819E+02 0.85911085963E+02
 0.99632696509E+02 0.92540096717E+02 0.82758614502E+02 0.71143492009E+02 0.58647081123E+02
 0.46231196025E+02 0.34793594096E+02 0.25069339180E+02 0.17531936228E+02 0.12302101105E+02
 0.91001891699E+01 0.73074311160E+01 0.61690381505E+01 0.53510167211E+01 0.48011022771E+01
 0.44447234486E+01 0.42338447454E+01 0.41169127787E+01 0.40715976007E+01 0.40803329265E+01
 0.41555564662E+01 0.43138032788E+01 0.45992132033E+01 0.50542747321E+01 0.57494063481E+01
 0.67424316800E+01 0.83096159140E+01 0.11017418699E+02 0.15312919321E+02 0.21413554858E+02
 0.29313414998E+02 0.38817716636E+02 0.49579817250E+02 0.61105082512E+02 0.72740864324E+02
 0.83679021719E+02 0.93011815047E+02 0.99841682419E+02 0.10343888177E+03 0.10338076520E+03
 0.11640407426E+03 0.10957362682E+03 0.99680757094E+02 0.87491358009E+02 0.73887420832E+02
 0.59814846971E+02 0.46230925155E+02 0.34042289182E+02 0.23980848478E+02 0.16468033534E+02
 0.11498189593E+02 0.86237533435E+01 0.70428836236E+01 0.59956135493E+01 0.52644807380E+01
 0.47838993139E+01 0.44848625501E+01 0.43146822512E+01 0.42377395970E+01 0.42353764997E+01
 0.43105945710E+01 0.44802177501E+01 0.47839313802E+01 0.52694326479E+01 0.60109931831E+01
 0.70795254199E+01 0.88143945863E+01 0.11917817607E+02 0.16945317637E+02 0.24165288248E+02
 0.33526863192E+02 0.44722733910E+02 0.57253230398E+02 0.70486659828E+02 0.83679070938E+02
 0.95993113082E+02 0.10652580290E+03 0.11440648053E+03 0.11891433075E+03 0.11960910761E+03
 0.13127540262E+03 0.12500535740E+03 0.11542443548E+03 0.10318176419E+03 0.89049615766E+02
 0.73887013458E+02 0.58646403683E+02 0.44316402910E+02 0.31836700807E+02 0.21913739869E+02
 0.14861037938E+02 0.10472451987E+02 0.80849253133E+01 0.67329239048E+01 0.57983927695E+01
 0.51693754544E+01 0.47641838665E+01 0.45241653763E+01 0.44028185702E+01 0.43774607049E+01
 0.44434424043E+01 0.46141133412E+01 0.49249359393E+01 0.54235159797E+01 0.61876653943E+01
 0.72932690079E+01 0.91074546907E+01 0.12451571996E+02 0.18016031842E+02 0.26144949216E+02
 0.36773191408E+02 0.49488754647E+02 0.63634158238E+02 0.78423699751E+02 0.93011825598E+02
 0.10652582596E+03 0.11809505792E+03 0.12690057443E+03 0.13226713620E+03 0.13376351498E+03
 0.14357330979E+03 0.13812053472E+03 0.12919590669E+03 0.11733229157E+03 0.10318136149E+03
 0.87490535294E+02 0.71142380291E+02 0.55145011496E+02 0.40566493729E+02 0.28351121027E+02
 0.19116603412E+02 0.12954973448E+02 0.94023537226E+01 0.75382159218E+01 0.63883157120E+01
 0.55869747236E+01 0.50660662186E+01 0.47391978297E+01 0.45647518919E+01 0.45023414872E+01
 0.45502363328E+01 0.47083400085E+01 0.50140016487E+01 0.55057090549E+01 0.62667479462E+01
 0.73683787574E+01 0.91587930764E+01 0.12533885032E+02 0.18339152804E+02 0.27023000542E+02
 0.38556286798E+02 0.52455019275E+02 0.67931714823E+02 0.84044812114E+02 0.99841499598E+02
 0.11440642064E+03 0.12690056221E+03 0.13656812642E+03 0.14279754667E+03 0.14517776729E+03
 0.15277445363E+03 0.14835539298E+03 0.14035194878E+03 0.12919564645E+03 0.11542377468E+03
 0.99679657946E+02 0.82757185987E+02 0.65633089004E+02 0.49424810147E+02 0.35248282441E+02
 0.23967539469E+02 0.15977659760E+02 0.11052847796E+02 0.84268273478E+01 0.69951997934E+01
 0.60225461176E+01 0.53723649890E+01 0.49545733210E+01 0.47153492766E+01 0.46095139473E+01
 0.46261387275E+01 0.47623002952E+01 0.50457156831E+01 0.55143322185E+01 0.62425849514E+01
 0.73067771604E+01 0.89791814294E+01 0.12163226110E+02 0.17851781551E+02 0.26632880696E+02
 0.38565582237E+02 0.53162422399E+02 0.69549310910E+02 0.86662188599E+02 0.10343834814E+03
 0.11891404317E+03 0.13226701647E+03 0.14279750935E+03 0.14994686146E+03 0.15332781579E+03
 0.15847487597E+03 0.15525441238E+03 0.14835529399E+03 0.13812020212E+03 0.12500465330E+03
 0.10957248550E+03 0.92538584049E+02 0.74824899500E+02 0.57546257128E+02 0.41898308688E+02
 0.28926604434E+02 0.19269143647E+02 0.12959119797E+02 0.94137431803E+01 0.75847450548E+01
 0.64478483154E+01 0.56641026910E+01 0.51572082240E+01 0.48473578316E+01 0.46949597805E+01
 0.46706731752E+01 0.47763426124E+01 0.50226852824E+01 0.54525535533E+01 0.61219497587E+01
 0.71196092792E+01 0.86171088591E+01 0.11421680113E+02 0.16639557149E+02 0.25018924050E+02
 0.36762526225E+02 0.51456783391E+02 0.68218401093E+02 0.85909843488E+02 0.10337980238E+03
 0.11960848637E+03 0.13376318955E+03 0.14517763412E+03 0.15332777699E+03 0.15782998919E+03
 0.15854584790E+03 0.15784310124E+03 0.15331199336E+03 0.14520502146E+03 0.13391251010E+03
 0.11992848596E+03 0.10386265741E+03 0.86490953780E+02 0.68805036554E+02 0.51962210608E+02
 0.37136389160E+02 0.25258895122E+02 0.16779576888E+02 0.11507483321E+02 0.86813237626E+01
 0.71692282601E+01 0.61502913675E+01 0.54599477497E+01 0.50162577594E+01 0.47665693070E+01
 0.46660792015E+01 0.46987638577E+01 0.48555709292E+01 0.51605394746E+01 0.56517915231E+01
 0.64131270158E+01 0.75295803436E+01 0.93436136989E+01 0.12857912919E+02 0.19095281756E+02