   1   1   0   1
  0.1333597E+02  0.2587511E-09  0.2587511E-09  0.2587511E-09  0.4000000E-15
  1.000000000000000E-004
  CAR 
 unknown system                          
     13.00000000     -2.00000000  501      7.60877984      1.00000000
     -2.000  0.0000E+00  0.6000E+01
     -1.970  0.0000E+00  0.6000E+01
     -1.940  0.0000E+00  0.6000E+01
     -1.910  0.0000E+00  0.6000E+01
     -1.880  0.0000E+00  0.6000E+01
     -1.850  0.0000E+00  0.6000E+01
     -1.820  0.0000E+00  0.6000E+01
     -1.790  0.0000E+00  0.6000E+01
     -1.760  0.0000E+00  0.6000E+01
     -1.730  0.0000E+00  0.6000E+01
     -1.700  0.0000E+00  0.6000E+01
     -1.670  0.0000E+00  0.6000E+01
     -1.640  0.0000E+00  0.6000E+01
     -1.610  0.0000E+00  0.6000E+01
     -1.580  0.0000E+00  0.6000E+01
     -1.550  0.0000E+00  0.6000E+01
     -1.520  0.0000E+00  0.6000E+01
     -1.490  0.0000E+00  0.6000E+01
     -1.460  0.0000E+00  0.6000E+01
     -1.430  0.0000E+00  0.6000E+01
     -1.400  0.0000E+00  0.6000E+01
     -1.370  0.0000E+00  0.6000E+01
     -1.340  0.0000E+00  0.6000E+01
     -1.310  0.0000E+00  0.6000E+01
     -1.280  0.0000E+00  0.6000E+01
     -1.250  0.0000E+00  0.6000E+01
     -1.220  0.0000E+00  0.6000E+01
     -1.190  0.0000E+00  0.6000E+01
     -1.160  0.0000E+00  0.6000E+01
     -1.130  0.0000E+00  0.6000E+01
     -1.100  0.0000E+00  0.6000E+01
     -1.070  0.0000E+00  0.6000E+01
     -1.040  0.0000E+00  0.6000E+01
     -1.010  0.0000E+00  0.6000E+01
     -0.980  0.0000E+00  0.6000E+01
     -0.950  0.0000E+00  0.6000E+01
     -0.920  0.0000E+00  0.6000E+01
     -0.890  0.0000E+00  0.6000E+01
     -0.860  0.0000E+00  0.6000E+01
     -0.830  0.0000E+00  0.6000E+01
     -0.800  0.0000E+00  0.6000E+01
     -0.770  0.0000E+00  0.6000E+01
     -0.740  0.0000E+00  0.6000E+01
     -0.710  0.0000E+00  0.6000E+01
     -0.680  0.0000E+00  0.6000E+01
     -0.650  0.6243E-04  0.6000E+01
     -0.620  0.2551E-03  0.6000E+01
     -0.590  0.5779E-03  0.6000E+01
     -0.560  0.1031E-02  0.6000E+01
     -0.530  0.1614E-02  0.6000E+01
     -0.500  0.2328E-02  0.6000E+01
     -0.470  0.3172E-02  0.6000E+01
     -0.440  0.4146E-02  0.6000E+01
     -0.410  0.5250E-02  0.6000E+01
     -0.380  0.6484E-02  0.6001E+01
     -0.350  0.7849E-02  0.6001E+01
     -0.320  0.9344E-02  0.6001E+01
     -0.290  0.1097E-01  0.6001E+01
     -0.260  0.1272E-01  0.6002E+01
     -0.230  0.1461E-01  0.6002E+01
     -0.200  0.1663E-01  0.6003E+01
     -0.170  0.1877E-01  0.6003E+01
     -0.140  0.2105E-01  0.6004E+01
     -0.110  0.2346E-01  0.6004E+01
     -0.080  0.2599E-01  0.6005E+01
     -0.050  0.2866E-01  0.6006E+01
     -0.020  0.3146E-01  0.6007E+01
      0.010  0.3438E-01  0.6008E+01
      0.040  0.3744E-01  0.6009E+01
      0.070  0.4063E-01  0.6010E+01
      0.100  0.4395E-01  0.6011E+01
      0.130  0.4740E-01  0.6013E+01
      0.160  0.5097E-01  0.6014E+01
      0.190  0.5468E-01  0.6016E+01
      0.220  0.5852E-01  0.6018E+01
      0.250  0.6249E-01  0.6019E+01
      0.280  0.6659E-01  0.6021E+01
      0.310  0.7082E-01  0.6023E+01
      0.340  0.7518E-01  0.6026E+01
      0.370  0.7967E-01  0.6028E+01
      0.400  0.8429E-01  0.6030E+01
      0.430  0.8904E-01  0.6033E+01
      0.460  0.9392E-01  0.6036E+01
      0.490  0.9894E-01  0.6039E+01
      0.520  0.1041E+00  0.6042E+01
      0.550  0.1093E+00  0.6045E+01
      0.580  0.1147E+00  0.6048E+01
      0.610  0.1203E+00  0.6052E+01
      0.640  0.1259E+00  0.6055E+01
      0.670  0.1317E+00  0.6059E+01
      0.700  0.1377E+00  0.6063E+01
      0.730  0.1437E+00  0.6068E+01
      0.760  0.1499E+00  0.6072E+01
      0.790  0.1562E+00  0.6077E+01
      0.820  0.1627E+00  0.6081E+01
      0.850  0.1692E+00  0.6086E+01
      0.880  0.1759E+00  0.6091E+01
      0.910  0.1828E+00  0.6097E+01
      0.940  0.1897E+00  0.6102E+01
      0.970  0.1968E+00  0.6108E+01
      1.000  0.2041E+00  0.6114E+01
      1.030  0.2114E+00  0.6120E+01
      1.060  0.2189E+00  0.6127E+01
      1.090  0.2265E+00  0.6134E+01
      1.120  0.2343E+00  0.6141E+01
      1.150  0.2421E+00  0.6148E+01
      1.180  0.2501E+00  0.6155E+01
      1.210  0.2583E+00  0.6163E+01
      1.240  0.2665E+00  0.6171E+01
      1.270  0.2749E+00  0.6179E+01
      1.300  0.2835E+00  0.6187E+01
      1.330  0.2921E+00  0.6196E+01
      1.360  0.3009E+00  0.6205E+01
      1.390  0.3098E+00  0.6214E+01
      1.420  0.3189E+00  0.6223E+01
      1.450  0.3281E+00  0.6233E+01
      1.480  0.3374E+00  0.6243E+01
      1.510  0.3468E+00  0.6253E+01
      1.540  0.3564E+00  0.6264E+01
      1.570  0.3661E+00  0.6274E+01
      1.600  0.3759E+00  0.6286E+01
      1.630  0.3859E+00  0.6297E+01
      1.660  0.3960E+00  0.6309E+01
      1.690  0.4062E+00  0.6321E+01
      1.720  0.4165E+00  0.6333E+01
      1.750  0.4270E+00  0.6346E+01
      1.780  0.4376E+00  0.6359E+01
      1.810  0.4484E+00  0.6372E+01
      1.840  0.4592E+00  0.6386E+01
      1.870  0.4702E+00  0.6400E+01
      1.900  0.4814E+00  0.6414E+01
      1.930  0.4926E+00  0.6428E+01
      1.960  0.5040E+00  0.6443E+01
      1.990  0.5155E+00  0.6459E+01
      2.020  0.5272E+00  0.6474E+01
      2.050  0.5390E+00  0.6490E+01
      2.080  0.5509E+00  0.6507E+01
      2.110  0.5629E+00  0.6523E+01
      2.140  0.5751E+00  0.6540E+01
      2.170  0.5874E+00  0.6558E+01
      2.200  0.5998E+00  0.6576E+01
      2.230  0.6124E+00  0.6594E+01
      2.260  0.6251E+00  0.6612E+01
      2.290  0.6379E+00  0.6631E+01
      2.320  0.6509E+00  0.6651E+01
      2.350  0.6640E+00  0.6670E+01
      2.380  0.6772E+00  0.6691E+01
      2.410  0.6905E+00  0.6711E+01
      2.440  0.7040E+00  0.6732E+01
      2.470  0.7176E+00  0.6753E+01
      2.500  0.7314E+00  0.6775E+01
      2.530  0.7452E+00  0.6797E+01
      2.560  0.7592E+00  0.6820E+01
      2.590  0.7733E+00  0.6843E+01
      2.620  0.7876E+00  0.6866E+01
      2.650  0.8020E+00  0.6890E+01
      2.680  0.8165E+00  0.6914E+01
      2.710  0.8312E+00  0.6939E+01
      2.740  0.8459E+00  0.6964E+01
      2.770  0.7422E+01  0.7617E+01
      2.800  0.4822E+01  0.7800E+01
      2.830  0.2781E+01  0.7912E+01
      2.860  0.1298E+01  0.7972E+01
      2.890  0.3730E+00  0.7996E+01
      2.920  0.6775E-02  0.8000E+01
      2.950  0.4296E-06  0.8000E+01
      2.980  0.3400E-03  0.8000E+01
      3.010  0.1312E-02  0.8000E+01
      3.040  0.2917E-02  0.8000E+01
      3.070  0.5154E-02  0.8000E+01
      3.100  0.8023E-02  0.8000E+01
      3.130  0.1153E-01  0.8001E+01
      3.160  0.1566E-01  0.8001E+01
      3.190  0.2043E-01  0.8002E+01
      3.220  0.2583E-01  0.8002E+01
      3.250  0.3186E-01  0.8003E+01
      3.280  0.3852E-01  0.8004E+01
      3.310  0.4582E-01  0.8006E+01
      3.340  0.5375E-01  0.8007E+01
      3.370  0.6231E-01  0.8009E+01
      3.400  0.7151E-01  0.8011E+01
      3.430  0.8133E-01  0.8013E+01
      3.460  0.9179E-01  0.8016E+01
      3.490  0.1029E+00  0.8019E+01
      3.520  0.1146E+00  0.8022E+01
      3.550  0.1270E+00  0.8025E+01
      3.580  0.1400E+00  0.8029E+01
      3.610  0.1536E+00  0.8034E+01
      3.640  0.1678E+00  0.8039E+01
      3.670  0.1827E+00  0.8044E+01
      3.700  0.1982E+00  0.8050E+01
      3.730  0.2144E+00  0.8056E+01
      3.760  0.2312E+00  0.8063E+01
      3.790  0.2486E+00  0.8070E+01
      3.820  0.2666E+00  0.8077E+01
      3.850  0.2853E+00  0.8086E+01
      3.880  0.3046E+00  0.8095E+01
      3.910  0.3246E+00  0.8104E+01
      3.940  0.3452E+00  0.8114E+01
      3.970  0.3664E+00  0.8125E+01
      4.000  0.3882E+00  0.8136E+01
      4.030  0.4107E+00  0.8148E+01
      4.060  0.4338E+00  0.8161E+01
      4.090  0.4576E+00  0.8174E+01
      4.120  0.4819E+00  0.8188E+01
      4.150  0.5069E+00  0.8203E+01
      4.180  0.5326E+00  0.8219E+01
      4.210  0.5588E+00  0.8235E+01
      4.240  0.5858E+00  0.8252E+01
      4.270  0.6133E+00  0.8270E+01
      4.300  0.6415E+00  0.8289E+01
      4.330  0.6703E+00  0.8309E+01
      4.360  0.6997E+00  0.8329E+01
      4.390  0.7298E+00  0.8351E+01
      4.420  0.7605E+00  0.8373E+01
      4.450  0.7918E+00  0.8396E+01
      4.480  0.8238E+00  0.8420E+01
      4.510  0.8564E+00  0.8446E+01
      4.540  0.8896E+00  0.8472E+01
      4.570  0.9234E+00  0.8499E+01
      4.600  0.9579E+00  0.8527E+01
      4.630  0.9931E+00  0.8556E+01
      4.660  0.1029E+01  0.8587E+01
      4.690  0.1065E+01  0.8618E+01
      4.720  0.1102E+01  0.8651E+01
      4.750  0.1140E+01  0.8684E+01
      4.780  0.1178E+01  0.8719E+01
      4.810  0.4738E+01  0.8765E+01
      4.840  0.1381E+01  0.9298E+01
      4.870  0.1327E+01  0.9339E+01
      4.900  0.1275E+01  0.9378E+01
      4.930  0.1223E+01  0.9415E+01
      4.960  0.1172E+01  0.9451E+01
      4.990  0.1123E+01  0.9485E+01
      5.020  0.1074E+01  0.9518E+01
      5.050  0.1027E+01  0.9550E+01
      5.080  0.9806E+00  0.9580E+01
      5.110  0.9354E+00  0.9609E+01
      5.140  0.8912E+00  0.9636E+01
      5.170  0.8481E+00  0.9662E+01
      5.200  0.8060E+00  0.9687E+01
      5.230  0.7650E+00  0.9711E+01
      5.260  0.7251E+00  0.9733E+01
      5.290  0.6863E+00  0.9754E+01
      5.320  0.6485E+00  0.9774E+01
      5.350  0.6118E+00  0.9793E+01
      5.380  0.5761E+00  0.9811E+01
      5.410  0.5416E+00  0.9828E+01
      5.440  0.5081E+00  0.9843E+01
      5.470  0.4757E+00  0.9858E+01
      5.500  0.4443E+00  0.9872E+01
      5.530  0.4140E+00  0.9885E+01
      5.560  0.3848E+00  0.9897E+01
      5.590  0.3566E+00  0.9908E+01
      5.620  0.3295E+00  0.9918E+01
      5.650  0.3035E+00  0.9928E+01
      5.680  0.2786E+00  0.9936E+01
      5.710  0.2547E+00  0.9944E+01
      5.740  0.2319E+00  0.9952E+01
      5.770  0.2102E+00  0.9958E+01
      5.800  0.1895E+00  0.9964E+01
      5.830  0.1699E+00  0.9970E+01
      5.860  0.1514E+00  0.9975E+01
      5.890  0.1339E+00  0.9979E+01
      5.920  0.1175E+00  0.9983E+01
      5.950  0.1022E+00  0.9986E+01
      5.980  0.8797E-01  0.9989E+01
      6.010  0.7479E-01  0.9991E+01
      6.040  0.6267E-01  0.9993E+01
      6.070  0.5163E-01  0.9995E+01
      6.100  0.4166E-01  0.9996E+01
      6.130  0.3275E-01  0.9997E+01
      6.160  0.2492E-01  0.9998E+01
      6.190  0.1815E-01  0.9999E+01
      6.220  0.1246E-01  0.9999E+01
      6.250  0.7831E-02  0.1000E+02
      6.280  0.4273E-02  0.1000E+02
      6.310  0.1785E-02  0.1000E+02
      6.340  0.3658E-03  0.1000E+02
      6.370  0.0000E+00  0.1000E+02
      6.400  0.0000E+00  0.1000E+02
      6.430  0.9399E-03  0.1000E+02
      6.460  0.4450E-02  0.1000E+02
      6.490  0.1056E-01  0.1000E+02
      6.520  0.1927E-01  0.1000E+02
      6.550  0.3058E-01  0.1000E+02
      6.580  0.4449E-01  0.1000E+02
      6.610  0.6100E-01  0.1000E+02
      6.640  0.8010E-01  0.1001E+02
      6.670  0.1018E+00  0.1001E+02
      6.700  0.1261E+00  0.1001E+02
      6.730  0.1530E+00  0.1002E+02
      6.760  0.1825E+00  0.1002E+02
      6.790  0.2146E+00  0.1003E+02
      6.820  0.2493E+00  0.1003E+02
      6.850  0.2867E+00  0.1004E+02
      6.880  0.3266E+00  0.1005E+02
      6.910  0.3691E+00  0.1006E+02
      6.940  0.4142E+00  0.1007E+02
      6.970  0.4619E+00  0.1009E+02
      7.000  0.5122E+00  0.1010E+02
      7.030  0.5651E+00  0.1012E+02
      7.060  0.6206E+00  0.1014E+02
      7.090  0.6787E+00  0.1016E+02
      7.120  0.7394E+00  0.1018E+02
      7.150  0.8027E+00  0.1020E+02
      7.180  0.8686E+00  0.1022E+02
      7.210  0.9371E+00  0.1025E+02
      7.240  0.1008E+01  0.1028E+02
      7.270  0.1082E+01  0.1031E+02
      7.300  0.1158E+01  0.1035E+02
      7.330  0.1237E+01  0.1038E+02
      7.360  0.1319E+01  0.1042E+02
      7.390  0.1403E+01  0.1046E+02
      7.420  0.1489E+01  0.1050E+02
      7.450  0.1579E+01  0.1055E+02
      7.480  0.1671E+01  0.1060E+02
      7.510  0.1765E+01  0.1065E+02
      7.540  0.1862E+01  0.1070E+02
      7.570  0.1962E+01  0.1076E+02
      7.600  0.2064E+01  0.1082E+02
      7.630  0.1566E+01  0.1138E+02
      7.660  0.1555E+01  0.1142E+02
      7.690  0.1545E+01  0.1147E+02
      7.720  0.1536E+01  0.1152E+02
      7.750  0.1528E+01  0.1156E+02
      7.780  0.1520E+01  0.1161E+02
      7.810  0.1514E+01  0.1165E+02
      7.840  0.1509E+01  0.1170E+02
      7.870  0.1505E+01  0.1175E+02
      7.900  0.1501E+01  0.1179E+02
      7.930  0.1499E+01  0.1184E+02
      7.960  0.1498E+01  0.1188E+02
      7.990  0.1497E+01  0.1192E+02
      8.020  0.1498E+01  0.1197E+02
      8.050  0.1500E+01  0.1201E+02
      8.080  0.1502E+01  0.1206E+02
      8.110  0.1506E+01  0.1211E+02
      8.140  0.1510E+01  0.1215E+02
      8.170  0.1516E+01  0.1220E+02
      8.200  0.1522E+01  0.1224E+02
      8.230  0.1530E+01  0.1229E+02
      8.260  0.1538E+01  0.1233E+02
      8.290  0.1548E+01  0.1238E+02
      8.320  0.1558E+01  0.1243E+02
      8.350  0.1570E+01  0.1247E+02
      8.380  0.1582E+01  0.1252E+02
      8.410  0.1595E+01  0.1257E+02
      8.440  0.1698E+02  0.1276E+02
      8.470  0.1990E+01  0.1317E+02
      8.500  0.2016E+01  0.1323E+02
      8.530  0.2106E+01  0.1329E+02
      8.560  0.2258E+01  0.1336E+02
      8.590  0.2473E+01  0.1343E+02
      8.620  0.2751E+01  0.1351E+02
      8.650  0.3091E+01  0.1359E+02
      8.680  0.3495E+01  0.1369E+02
      8.710  0.3961E+01  0.1380E+02
      8.740  0.4490E+01  0.1393E+02
      8.770  0.5082E+01  0.1407E+02
      8.800  0.5737E+01  0.1424E+02
      8.830  0.7186E+01  0.1487E+02
      8.860  0.3431E+01  0.1498E+02
      8.890  0.3222E+01  0.1508E+02
      8.920  0.3020E+01  0.1518E+02
      8.950  0.2827E+01  0.1526E+02
      8.980  0.2642E+01  0.1535E+02
      9.010  0.2465E+01  0.1542E+02
      9.040  0.2296E+01  0.1549E+02
      9.070  0.2135E+01  0.1556E+02
      9.100  0.1981E+01  0.1562E+02
      9.130  0.1836E+01  0.1568E+02
      9.160  0.1699E+01  0.1573E+02
      9.190  0.1570E+01  0.1578E+02
      9.220  0.1448E+01  0.1583E+02
      9.250  0.1335E+01  0.1587E+02
      9.280  0.1230E+01  0.1591E+02
      9.310  0.1132E+01  0.1594E+02
      9.340  0.1043E+01  0.1598E+02
      9.370  0.9616E+00  0.1601E+02
      9.400  0.8882E+00  0.1603E+02
      9.430  0.8228E+00  0.1606E+02
      9.460  0.7654E+00  0.1608E+02
      9.490  0.7159E+00  0.1610E+02
      9.520  0.6745E+00  0.1613E+02
      9.550  0.6410E+00  0.1615E+02
      9.580  0.6155E+00  0.1616E+02
      9.610  0.5980E+00  0.1618E+02
      9.640  0.5885E+00  0.1620E+02
      9.670  0.5870E+00  0.1622E+02
      9.700  0.5934E+00  0.1624E+02
      9.730  0.6079E+00  0.1625E+02
      9.760  0.6300E+00  0.1627E+02
      9.790  0.6587E+00  0.1629E+02
      9.820  0.6888E+00  0.1631E+02
      9.850  0.7196E+00  0.1633E+02
      9.880  0.7511E+00  0.1635E+02
      9.910  0.7832E+00  0.1638E+02
      9.940  0.8160E+00  0.1640E+02
      9.970  0.8495E+00  0.1643E+02
     10.000  0.8837E+00  0.1645E+02
     10.030  0.9185E+00  0.1648E+02
     10.060  0.9540E+00  0.1651E+02
     10.090  0.9902E+00  0.1654E+02
     10.120  0.1027E+01  0.1657E+02
     10.150  0.1275E+02  0.1669E+02
     10.180  0.4328E+00  0.1712E+02
     10.210  0.4286E+00  0.1713E+02
     10.240  0.4243E+00  0.1714E+02
     10.270  0.4201E+00  0.1716E+02
     10.300  0.4160E+00  0.1717E+02
     10.330  0.4118E+00  0.1718E+02
     10.360  0.4077E+00  0.1719E+02
     10.390  0.4035E+00  0.1721E+02
     10.420  0.3995E+00  0.1722E+02
     10.450  0.3954E+00  0.1723E+02
     10.480  0.3913E+00  0.1724E+02
     10.510  0.3873E+00  0.1725E+02
     10.540  0.3833E+00  0.1727E+02
     10.570  0.3793E+00  0.1728E+02
     10.600  0.3753E+00  0.1729E+02
     10.630  0.3714E+00  0.1730E+02
     10.660  0.3674E+00  0.1731E+02
     10.690  0.3635E+00  0.1732E+02
     10.720  0.3597E+00  0.1733E+02
     10.750  0.3558E+00  0.1734E+02
     10.780  0.3519E+00  0.1735E+02
     10.810  0.3481E+00  0.1736E+02
     10.840  0.3443E+00  0.1737E+02
     10.870  0.3405E+00  0.1738E+02
     10.900  0.3368E+00  0.1740E+02
     10.930  0.3330E+00  0.1741E+02
     10.960  0.3293E+00  0.1742E+02
     10.990  0.3256E+00  0.1742E+02
     11.020  0.3219E+00  0.1743E+02
     11.050  0.3183E+00  0.1744E+02
     11.080  0.3147E+00  0.1745E+02
     11.110  0.3110E+00  0.1746E+02
     11.140  0.3074E+00  0.1747E+02
     11.170  0.3039E+00  0.1748E+02
     11.200  0.3003E+00  0.1749E+02
     11.230  0.2968E+00  0.1750E+02
     11.260  0.2933E+00  0.1751E+02
     11.290  0.2898E+00  0.1752E+02
     11.320  0.2863E+00  0.1753E+02
     11.350  0.2829E+00  0.1753E+02
     11.380  0.2795E+00  0.1754E+02
     11.410  0.2760E+00  0.1755E+02
     11.440  0.2727E+00  0.1756E+02
     11.470  0.2693E+00  0.1757E+02
     11.500  0.2660E+00  0.1758E+02
     11.530  0.2626E+00  0.1758E+02
     11.560  0.2593E+00  0.1759E+02
     11.590  0.2561E+00  0.1760E+02
     11.620  0.2528E+00  0.1761E+02
     11.650  0.2496E+00  0.1761E+02
     11.680  0.2463E+00  0.1762E+02
     11.710  0.2431E+00  0.1763E+02
     11.740  0.2400E+00  0.1764E+02
     11.770  0.2368E+00  0.1764E+02
     11.800  0.2337E+00  0.1765E+02
     11.830  0.2306E+00  0.1766E+02
     11.860  0.2275E+00  0.1766E+02
     11.890  0.2244E+00  0.1767E+02
     11.920  0.2213E+00  0.1768E+02
     11.950  0.2183E+00  0.1768E+02
     11.980  0.2153E+00  0.1769E+02
     12.010  0.2123E+00  0.1770E+02
     12.040  0.2094E+00  0.1770E+02
     12.070  0.2064E+00  0.1771E+02
     12.100  0.2035E+00  0.1772E+02
     12.130  0.2006E+00  0.1772E+02
     12.160  0.1977E+00  0.1773E+02
     12.190  0.1948E+00  0.1773E+02
     12.220  0.1920E+00  0.1774E+02
     12.250  0.1892E+00  0.1775E+02
     12.280  0.1864E+00  0.1775E+02
     12.310  0.1836E+00  0.1776E+02
     12.340  0.1808E+00  0.1776E+02
     12.370  0.1781E+00  0.1777E+02
     12.400  0.1754E+00  0.1777E+02
     12.430  0.1727E+00  0.1778E+02
     12.460  0.1700E+00  0.1778E+02
     12.490  0.1674E+00  0.1779E+02
     12.520  0.1647E+00  0.1779E+02
     12.550  0.1621E+00  0.1780E+02
     12.580  0.1595E+00  0.1780E+02
     12.610  0.1569E+00  0.1781E+02
     12.640  0.1544E+00  0.1781E+02
     12.670  0.1519E+00  0.1782E+02
     12.700  0.1494E+00  0.1782E+02
     12.730  0.1469E+00  0.1783E+02
     12.760  0.1444E+00  0.1783E+02
     12.790  0.1420E+00  0.1783E+02
     12.820  0.1395E+00  0.1784E+02
     12.850  0.1371E+00  0.1784E+02
     12.880  0.1348E+00  0.1785E+02
     12.910  0.1324E+00  0.1785E+02
     12.940  0.1301E+00  0.1785E+02
     12.970  0.1277E+00  0.1786E+02
     13.000  0.1254E+00  0.1786E+02
