unknown system                          
           1
    -1.493900    1.493900    1.493900
     1.493900   -1.493900    1.493900
     1.493900    1.493900   -1.493900
   V 
   1
Direct configuration=     1
   0.00000000  0.00000000  0.00000000
